<?xml version="1.0" encoding="UTF-8"?>

<!-- generated on 2024-11-21 10:46:36 by Eclipse SUMO GUI Version 1.20.0
<configuration xmlns:xsi="http://www.w3.org/2001/XMLSchema-instance" xsi:noNamespaceSchemaLocation="http://sumo.dlr.de/xsd/sumoConfiguration.xsd">

    <input>
        <net-file value="./platoon_test/sim_cfg/2way.net.xml"/>
        <route-files value="./platoon_test/sim_cfg/2way.rou.xml"/>
    </input>

    <output>
        <tripinfo-output value="./platoon_test/sim_cfg/tripinfo-platooning_0.144.xml"/>
    </output>

    <time>
        <begin value="0"/>
        <end value="500"/>
        <step-length value="0.1"/>
    </time>

    <traci_server>
        <remote-port value="49298"/>
    </traci_server>

    <gui_only>
        <gui-settings-file value="./platoon_test/sim_cfg/gui_settings.xml"/>
    </gui_only>

</configuration>
-->

<tripinfos xmlns:xsi="http://www.w3.org/2001/XMLSchema-instance" xsi:noNamespaceSchemaLocation="http://sumo.dlr.de/xsd/tripinfo_file.xsd">
    <tripinfo id="flow0.1" depart="2.40" departLane="E0_0" departPos="4.10" departSpeed="0.00" departDelay="1.40" arrival="134.80" arrivalLane="E1_1" arrivalPos="1000.00" arrivalSpeed="4.01" duration="132.40" routeLength="1046.00" waitingTime="19.90" waitingCount="2" stopTime="0.00" timeLoss="52.15" rerouteNo="0" devices="tripinfo_flow0.1" vType="vtypeauto" speedFactor="0.94" vaporized=""/>
</tripinfos>
