<?xml version="1.0" encoding="UTF-8"?>

<!-- generated on 2024-10-24 12:36:16 by Eclipse SUMO sumo Version 1.20.0
<configuration xmlns:xsi="http://www.w3.org/2001/XMLSchema-instance" xsi:noNamespaceSchemaLocation="http://sumo.dlr.de/xsd/sumoConfiguration.xsd">

    <input>
        <net-file value="sim_cfg_grid_2_lanes/grid.net.xml"/>
        <route-files value="sim_cfg_grid_2_lanes/grid.rou.xml"/>
    </input>

    <output>
        <tripinfo-output value="sim_cfg_grid_2_lanes/tripinfo2.xml"/>
    </output>

    <time>
        <begin value="0"/>
        <end value="500"/>
        <step-length value="0.1"/>
    </time>

    <traci_server>
        <remote-port value="49468"/>
    </traci_server>

    <gui_only>
        <gui-settings-file value="sim_cfg_grid_2_lanes/gui_settings.xml"/>
    </gui_only>

</configuration>
-->

<tripinfos xmlns:xsi="http://www.w3.org/2001/XMLSchema-instance" xsi:noNamespaceSchemaLocation="http://sumo.dlr.de/xsd/tripinfo_file.xsd">
    <tripinfo id="flow4.0" depart="1.30" departLane="C0C1_0" departPos="4.10" departSpeed="0.00" departDelay="1.30" arrival="49.70" arrivalLane="C3C4_0" arrivalPos="79.20" arrivalSpeed="14.22" duration="48.40" routeLength="375.10" waitingTime="9.30" waitingCount="2" stopTime="0.00" timeLoss="22.11" rerouteNo="0" devices="tripinfo_flow4.0" vType="vtypeauto" speedFactor="1.03" vaporized=""/>
    <tripinfo id="flow4.1" depart="4.20" departLane="C0C1_0" departPos="4.10" departSpeed="0.00" departDelay="3.20" arrival="49.70" arrivalLane="C3C4_1" arrivalPos="79.20" arrivalSpeed="14.25" duration="45.50" routeLength="375.10" waitingTime="3.00" waitingCount="1" stopTime="0.00" timeLoss="19.11" rerouteNo="0" devices="tripinfo_flow4.1" vType="vtypeauto" speedFactor="1.03" vaporized=""/>
    <tripinfo id="flow4.4" depart="13.30" departLane="C0C1_0" departPos="4.10" departSpeed="0.00" departDelay="9.30" arrival="51.40" arrivalLane="C3C4_1" arrivalPos="79.20" arrivalSpeed="13.89" duration="38.10" routeLength="375.10" waitingTime="0.00" waitingCount="0" stopTime="0.00" timeLoss="11.15" rerouteNo="0" devices="tripinfo_flow4.4" vType="vtypeauto" speedFactor="1.01" vaporized=""/>
    <tripinfo id="flow4.2" depart="7.10" departLane="C0C1_0" departPos="4.10" departSpeed="0.00" departDelay="5.10" arrival="52.20" arrivalLane="C3C4_0" arrivalPos="79.20" arrivalSpeed="12.95" duration="45.10" routeLength="375.10" waitingTime="0.00" waitingCount="0" stopTime="0.00" timeLoss="16.23" rerouteNo="0" devices="tripinfo_flow4.2" vType="vtypeauto" speedFactor="0.94" vaporized=""/>
    <tripinfo id="flow4.6" depart="19.00" departLane="C0C1_0" departPos="4.10" departSpeed="0.00" departDelay="13.00" arrival="53.00" arrivalLane="C3C4_1" arrivalPos="79.20" arrivalSpeed="13.81" duration="34.00" routeLength="375.10" waitingTime="0.00" waitingCount="0" stopTime="0.00" timeLoss="6.86" rerouteNo="0" devices="tripinfo_flow4.6" vType="vtypeauto" speedFactor="1.00" vaporized=""/>
    <tripinfo id="flow4.7" depart="21.90" departLane="C0C1_0" departPos="4.10" departSpeed="0.00" departDelay="14.90" arrival="54.50" arrivalLane="C3C4_1" arrivalPos="79.20" arrivalSpeed="15.13" duration="32.60" routeLength="375.10" waitingTime="0.00" waitingCount="0" stopTime="0.00" timeLoss="7.87" rerouteNo="0" devices="tripinfo_flow4.7" vType="vtypeauto" speedFactor="1.10" vaporized=""/>
    <tripinfo id="flow4.3" depart="10.00" departLane="C0C1_0" departPos="4.10" departSpeed="0.00" departDelay="7.00" arrival="54.70" arrivalLane="C3C4_0" arrivalPos="79.20" arrivalSpeed="12.02" duration="44.70" routeLength="375.10" waitingTime="0.00" waitingCount="0" stopTime="0.00" timeLoss="13.68" rerouteNo="0" devices="tripinfo_flow4.3" vType="vtypeauto" speedFactor="0.87" vaporized=""/>
    <tripinfo id="flow4.5" depart="16.20" departLane="C0C1_0" departPos="4.10" departSpeed="0.00" departDelay="11.20" arrival="56.30" arrivalLane="C3C4_0" arrivalPos="79.20" arrivalSpeed="12.46" duration="40.10" routeLength="375.10" waitingTime="0.00" waitingCount="0" stopTime="0.00" timeLoss="10.07" rerouteNo="0" devices="tripinfo_flow4.5" vType="vtypeauto" speedFactor="0.90" vaporized=""/>
    <tripinfo id="flow4.8" depart="24.80" departLane="C0C1_0" departPos="4.10" departSpeed="0.00" departDelay="16.80" arrival="57.80" arrivalLane="C3C4_0" arrivalPos="79.20" arrivalSpeed="14.95" duration="33.00" routeLength="375.10" waitingTime="0.00" waitingCount="0" stopTime="0.00" timeLoss="7.98" rerouteNo="0" devices="tripinfo_flow4.8" vType="vtypeauto" speedFactor="1.08" vaporized=""/>
    <tripinfo id="flow1.1" depart="2.70" departLane="A3B3_0" departPos="4.10" departSpeed="0.00" departDelay="1.70" arrival="79.90" arrivalLane="D3E3_1" arrivalPos="79.20" arrivalSpeed="13.02" duration="77.20" routeLength="375.10" waitingTime="36.50" waitingCount="2" stopTime="0.00" timeLoss="48.33" rerouteNo="0" devices="tripinfo_flow1.1" vType="vtypeauto" speedFactor="0.94" vaporized=""/>
    <tripinfo id="flow1.0" depart="0.00" departLane="A3B3_0" departPos="4.10" departSpeed="0.00" departDelay="0.00" arrival="80.10" arrivalLane="D3E3_0" arrivalPos="79.20" arrivalSpeed="13.00" duration="80.10" routeLength="375.10" waitingTime="39.70" waitingCount="2" stopTime="0.00" timeLoss="51.23" rerouteNo="0" devices="tripinfo_flow1.0" vType="vtypeauto" speedFactor="0.94" vaporized=""/>
    <tripinfo id="flow1.3" depart="8.20" departLane="A3B3_0" departPos="4.10" departSpeed="0.00" departDelay="5.20" arrival="81.40" arrivalLane="D3E3_1" arrivalPos="79.20" arrivalSpeed="13.44" duration="73.20" routeLength="375.10" waitingTime="29.00" waitingCount="1" stopTime="0.00" timeLoss="45.49" rerouteNo="0" devices="tripinfo_flow1.3" vType="vtypeauto" speedFactor="0.97" vaporized=""/>
    <tripinfo id="flow1.2" depart="5.40" departLane="A3B3_0" departPos="4.10" departSpeed="0.00" departDelay="3.40" arrival="81.70" arrivalLane="D3E3_0" arrivalPos="79.20" arrivalSpeed="12.85" duration="76.30" routeLength="375.10" waitingTime="29.00" waitingCount="1" stopTime="0.00" timeLoss="47.08" rerouteNo="0" devices="tripinfo_flow1.2" vType="vtypeauto" speedFactor="0.93" vaporized=""/>
    <tripinfo id="flow1.5" depart="13.80" departLane="A3B3_0" departPos="4.10" departSpeed="0.00" departDelay="8.80" arrival="83.00" arrivalLane="D3E3_1" arrivalPos="79.20" arrivalSpeed="13.49" duration="69.20" routeLength="375.10" waitingTime="27.20" waitingCount="1" stopTime="0.00" timeLoss="41.38" rerouteNo="0" devices="tripinfo_flow1.5" vType="vtypeauto" speedFactor="0.97" vaporized=""/>
    <tripinfo id="flow1.4" depart="11.00" departLane="A3B3_0" departPos="4.10" departSpeed="0.00" departDelay="7.00" arrival="83.30" arrivalLane="D3E3_0" arrivalPos="79.20" arrivalSpeed="12.82" duration="72.30" routeLength="375.10" waitingTime="27.30" waitingCount="1" stopTime="0.00" timeLoss="43.22" rerouteNo="0" devices="tripinfo_flow1.4" vType="vtypeauto" speedFactor="0.93" vaporized=""/>
    <tripinfo id="flow1.8" depart="22.20" departLane="A3B3_0" departPos="4.10" departSpeed="0.00" departDelay="14.20" arrival="84.40" arrivalLane="D3E3_1" arrivalPos="79.20" arrivalSpeed="15.39" duration="62.20" routeLength="375.10" waitingTime="17.00" waitingCount="2" stopTime="0.00" timeLoss="38.56" rerouteNo="0" devices="tripinfo_flow1.8" vType="vtypeauto" speedFactor="1.14" vaporized=""/>
    <tripinfo id="flow1.6" depart="16.60" departLane="A3B3_0" departPos="4.10" departSpeed="0.00" departDelay="10.60" arrival="84.70" arrivalLane="D3E3_0" arrivalPos="79.20" arrivalSpeed="14.41" duration="68.10" routeLength="375.10" waitingTime="25.80" waitingCount="1" stopTime="0.00" timeLoss="42.08" rerouteNo="0" devices="tripinfo_flow1.6" vType="vtypeauto" speedFactor="1.04" vaporized=""/>
    <tripinfo id="flow1.10" depart="27.80" departLane="A3B3_0" departPos="4.10" departSpeed="0.00" departDelay="17.80" arrival="86.10" arrivalLane="D3E3_1" arrivalPos="79.20" arrivalSpeed="13.42" duration="58.30" routeLength="375.10" waitingTime="6.90" waitingCount="1" stopTime="0.00" timeLoss="30.46" rerouteNo="0" devices="tripinfo_flow1.10" vType="vtypeauto" speedFactor="0.97" vaporized=""/>
    <tripinfo id="flow2.0" depart="0.00" departLane="A0A1_0" departPos="4.10" departSpeed="0.00" departDelay="0.00" arrival="86.30" arrivalLane="C3D3_0" arrivalPos="79.20" arrivalSpeed="12.42" duration="86.30" routeLength="540.89" waitingTime="18.70" waitingCount="3" stopTime="0.00" timeLoss="44.24" rerouteNo="0" devices="tripinfo_flow2.0" vType="vtypeauto" speedFactor="1.01" vaporized=""/>
    <tripinfo id="flow2.1" depart="2.80" departLane="A0A1_0" departPos="4.10" departSpeed="0.00" departDelay="1.80" arrival="86.60" arrivalLane="C3D3_1" arrivalPos="79.20" arrivalSpeed="11.85" duration="83.80" routeLength="540.89" waitingTime="6.70" waitingCount="1" stopTime="0.00" timeLoss="34.17" rerouteNo="0" devices="tripinfo_flow2.1" vType="vtypeauto" speedFactor="0.86" vaporized=""/>
    <tripinfo id="flow1.7" depart="19.40" departLane="A3B3_0" departPos="4.10" departSpeed="0.00" departDelay="12.40" arrival="86.70" arrivalLane="D3E3_0" arrivalPos="79.20" arrivalSpeed="11.78" duration="67.30" routeLength="375.10" waitingTime="20.00" waitingCount="2" stopTime="0.00" timeLoss="35.72" rerouteNo="0" devices="tripinfo_flow1.7" vType="vtypeauto" speedFactor="0.85" vaporized=""/>
    <tripinfo id="flow1.12" depart="33.30" departLane="A3B3_0" departPos="4.10" departSpeed="0.00" departDelay="21.30" arrival="87.60" arrivalLane="D3E3_1" arrivalPos="79.20" arrivalSpeed="13.51" duration="54.30" routeLength="375.10" waitingTime="2.40" waitingCount="1" stopTime="0.00" timeLoss="26.60" rerouteNo="0" devices="tripinfo_flow1.12" vType="vtypeauto" speedFactor="0.98" vaporized=""/>
    <tripinfo id="flow2.2" depart="5.60" departLane="A0A1_0" departPos="4.10" departSpeed="0.00" departDelay="3.60" arrival="88.00" arrivalLane="C3D3_0" arrivalPos="79.20" arrivalSpeed="12.14" duration="82.40" routeLength="540.89" waitingTime="5.10" waitingCount="2" stopTime="0.00" timeLoss="33.99" rerouteNo="0" devices="tripinfo_flow2.2" vType="vtypeauto" speedFactor="0.88" vaporized=""/>
    <tripinfo id="flow1.9" depart="25.00" departLane="A3B3_0" departPos="4.10" departSpeed="0.00" departDelay="16.00" arrival="88.30" arrivalLane="D3E3_0" arrivalPos="79.20" arrivalSpeed="12.96" duration="63.30" routeLength="375.10" waitingTime="10.90" waitingCount="2" stopTime="0.00" timeLoss="34.46" rerouteNo="0" devices="tripinfo_flow1.9" vType="vtypeauto" speedFactor="0.94" vaporized=""/>
    <tripinfo id="flow1.14" depart="38.80" departLane="A3B3_0" departPos="4.10" departSpeed="0.00" departDelay="24.80" arrival="89.10" arrivalLane="D3E3_1" arrivalPos="79.20" arrivalSpeed="15.13" duration="50.30" routeLength="375.10" waitingTime="0.00" waitingCount="0" stopTime="0.00" timeLoss="25.61" rerouteNo="0" devices="tripinfo_flow1.14" vType="vtypeauto" speedFactor="1.10" vaporized=""/>
    <tripinfo id="flow1.11" depart="30.60" departLane="A3B3_0" departPos="4.10" departSpeed="0.00" departDelay="19.60" arrival="89.80" arrivalLane="D3E3_0" arrivalPos="79.20" arrivalSpeed="13.98" duration="59.20" routeLength="375.10" waitingTime="5.50" waitingCount="1" stopTime="0.00" timeLoss="32.33" rerouteNo="0" devices="tripinfo_flow1.11" vType="vtypeauto" speedFactor="1.01" vaporized=""/>
    <tripinfo id="flow2.7" depart="19.50" departLane="A0A1_0" departPos="4.10" departSpeed="0.00" departDelay="12.50" arrival="90.00" arrivalLane="C3D3_0" arrivalPos="79.20" arrivalSpeed="16.19" duration="70.50" routeLength="540.89" waitingTime="2.20" waitingCount="4" stopTime="0.00" timeLoss="34.10" rerouteNo="0" devices="tripinfo_flow2.7" vType="vtypeauto" speedFactor="1.17" vaporized=""/>
    <tripinfo id="flow1.16" depart="44.40" departLane="A3B3_0" departPos="4.10" departSpeed="0.00" departDelay="28.40" arrival="90.60" arrivalLane="D3E3_1" arrivalPos="79.20" arrivalSpeed="13.95" duration="46.20" routeLength="375.10" waitingTime="0.00" waitingCount="0" stopTime="0.00" timeLoss="19.43" rerouteNo="0" devices="tripinfo_flow1.16" vType="vtypeauto" speedFactor="1.01" vaporized=""/>
    <tripinfo id="flow1.13" depart="36.10" departLane="A3B3_0" departPos="4.10" departSpeed="0.00" departDelay="23.10" arrival="91.90" arrivalLane="D3E3_0" arrivalPos="79.20" arrivalSpeed="11.51" duration="55.80" routeLength="375.10" waitingTime="0.00" waitingCount="0" stopTime="0.00" timeLoss="23.32" rerouteNo="0" devices="tripinfo_flow1.13" vType="vtypeauto" speedFactor="0.83" vaporized=""/>
    <tripinfo id="flow1.17" depart="47.20" departLane="A3B3_0" departPos="4.10" departSpeed="0.00" departDelay="30.20" arrival="92.40" arrivalLane="D3E3_1" arrivalPos="79.20" arrivalSpeed="13.08" duration="45.20" routeLength="375.10" waitingTime="0.00" waitingCount="0" stopTime="0.00" timeLoss="16.47" rerouteNo="0" devices="tripinfo_flow1.17" vType="vtypeauto" speedFactor="0.94" vaporized=""/>
    <tripinfo id="flow2.3" depart="8.40" departLane="A0A1_0" departPos="4.10" departSpeed="0.00" departDelay="5.40" arrival="92.90" arrivalLane="C3D3_0" arrivalPos="79.20" arrivalSpeed="12.28" duration="84.50" routeLength="540.89" waitingTime="1.90" waitingCount="1" stopTime="0.00" timeLoss="36.67" rerouteNo="0" devices="tripinfo_flow2.3" vType="vtypeauto" speedFactor="0.89" vaporized=""/>
    <tripinfo id="flow1.15" depart="41.60" departLane="A3B3_0" departPos="4.10" departSpeed="0.00" departDelay="26.60" arrival="93.40" arrivalLane="D3E3_0" arrivalPos="79.20" arrivalSpeed="13.96" duration="51.80" routeLength="375.10" waitingTime="0.00" waitingCount="0" stopTime="0.00" timeLoss="25.11" rerouteNo="0" devices="tripinfo_flow1.15" vType="vtypeauto" speedFactor="1.01" vaporized=""/>
    <tripinfo id="flow2.9" depart="25.10" departLane="A0A1_0" departPos="4.10" departSpeed="0.00" departDelay="16.10" arrival="105.40" arrivalLane="C3D3_0" arrivalPos="79.20" arrivalSpeed="12.25" duration="80.30" routeLength="540.89" waitingTime="10.70" waitingCount="2" stopTime="0.00" timeLoss="32.13" rerouteNo="0" devices="tripinfo_flow2.9" vType="vtypeauto" speedFactor="0.88" vaporized=""/>
    <tripinfo id="flow2.4" depart="11.10" departLane="A0A1_0" departPos="4.10" departSpeed="0.00" departDelay="7.10" arrival="106.90" arrivalLane="C3D3_0" arrivalPos="79.20" arrivalSpeed="14.88" duration="95.80" routeLength="540.89" waitingTime="5.60" waitingCount="2" stopTime="0.00" timeLoss="59.67" rerouteNo="0" devices="tripinfo_flow2.4" vType="vtypeauto" speedFactor="1.18" vaporized=""/>
    <tripinfo id="flow2.11" depart="30.70" departLane="A0A1_0" departPos="4.10" departSpeed="0.00" departDelay="19.70" arrival="108.40" arrivalLane="C3D3_0" arrivalPos="79.20" arrivalSpeed="15.08" duration="77.70" routeLength="540.89" waitingTime="9.70" waitingCount="1" stopTime="0.00" timeLoss="38.54" rerouteNo="0" devices="tripinfo_flow2.11" vType="vtypeauto" speedFactor="1.09" vaporized=""/>
    <tripinfo id="flow6.1" depart="2.80" departLane="D4D3_0" departPos="4.10" departSpeed="0.00" departDelay="1.80" arrival="110.00" arrivalLane="D1D0_1" arrivalPos="79.20" arrivalSpeed="15.52" duration="107.20" routeLength="375.10" waitingTime="68.80" waitingCount="2" stopTime="0.00" timeLoss="83.06" rerouteNo="0" devices="tripinfo_flow6.1" vType="vtypeauto" speedFactor="1.12" vaporized=""/>
    <tripinfo id="flow2.5" depart="13.90" departLane="A0A1_0" departPos="4.10" departSpeed="0.00" departDelay="8.90" arrival="110.10" arrivalLane="C3D3_0" arrivalPos="79.20" arrivalSpeed="16.31" duration="96.20" routeLength="540.89" waitingTime="9.00" waitingCount="3" stopTime="0.00" timeLoss="60.07" rerouteNo="0" devices="tripinfo_flow2.5" vType="vtypeauto" speedFactor="1.18" vaporized=""/>
    <tripinfo id="flow2.12" depart="33.50" departLane="A0A1_0" departPos="4.10" departSpeed="0.00" departDelay="21.50" arrival="113.00" arrivalLane="C3D3_0" arrivalPos="79.20" arrivalSpeed="13.84" duration="79.50" routeLength="540.89" waitingTime="11.40" waitingCount="1" stopTime="0.00" timeLoss="37.01" rerouteNo="0" devices="tripinfo_flow2.12" vType="vtypeauto" speedFactor="1.00" vaporized=""/>
    <tripinfo id="flow6.3" depart="8.40" departLane="D4D3_0" departPos="4.10" departSpeed="0.00" departDelay="5.40" arrival="113.10" arrivalLane="D1D0_1" arrivalPos="79.20" arrivalSpeed="13.12" duration="104.70" routeLength="375.10" waitingTime="61.20" waitingCount="1" stopTime="0.00" timeLoss="76.20" rerouteNo="0" devices="tripinfo_flow6.3" vType="vtypeauto" speedFactor="0.95" vaporized=""/>
    <tripinfo id="flow6.5" depart="14.00" departLane="D4D3_0" departPos="4.10" departSpeed="0.00" departDelay="9.00" arrival="114.70" arrivalLane="D1D0_1" arrivalPos="79.20" arrivalSpeed="13.22" duration="100.70" routeLength="375.10" waitingTime="59.10" waitingCount="1" stopTime="0.00" timeLoss="72.45" rerouteNo="0" devices="tripinfo_flow6.5" vType="vtypeauto" speedFactor="0.96" vaporized=""/>
    <tripinfo id="flow2.6" depart="16.70" departLane="A0A1_0" departPos="4.10" departSpeed="0.00" departDelay="10.70" arrival="115.00" arrivalLane="C3D3_0" arrivalPos="79.20" arrivalSpeed="14.37" duration="98.30" routeLength="540.89" waitingTime="11.90" waitingCount="4" stopTime="0.00" timeLoss="57.52" rerouteNo="0" devices="tripinfo_flow2.6" vType="vtypeauto" speedFactor="1.04" vaporized=""/>
    <tripinfo id="flow6.7" depart="19.60" departLane="D4D3_0" departPos="4.10" departSpeed="0.00" departDelay="12.60" arrival="116.30" arrivalLane="D1D0_1" arrivalPos="79.20" arrivalSpeed="13.77" duration="96.70" routeLength="375.10" waitingTime="55.20" waitingCount="1" stopTime="0.00" timeLoss="69.50" rerouteNo="0" devices="tripinfo_flow6.7" vType="vtypeauto" speedFactor="1.00" vaporized=""/>
    <tripinfo id="flow2.8" depart="22.30" departLane="A0A1_0" departPos="4.10" departSpeed="0.00" departDelay="14.30" arrival="117.30" arrivalLane="C3D3_0" arrivalPos="79.20" arrivalSpeed="14.18" duration="95.00" routeLength="540.89" waitingTime="10.40" waitingCount="1" stopTime="0.00" timeLoss="53.34" rerouteNo="0" devices="tripinfo_flow2.8" vType="vtypeauto" speedFactor="1.02" vaporized=""/>
    <tripinfo id="flow6.9" depart="25.20" departLane="D4D3_0" departPos="4.10" departSpeed="0.00" departDelay="16.20" arrival="117.80" arrivalLane="D1D0_1" arrivalPos="79.20" arrivalSpeed="14.17" duration="92.60" routeLength="375.10" waitingTime="51.00" waitingCount="1" stopTime="0.00" timeLoss="66.13" rerouteNo="0" devices="tripinfo_flow6.9" vType="vtypeauto" speedFactor="1.02" vaporized=""/>
    <tripinfo id="flow2.14" depart="39.10" departLane="A0A1_0" departPos="4.10" departSpeed="0.00" departDelay="25.10" arrival="119.20" arrivalLane="C3D3_0" arrivalPos="79.20" arrivalSpeed="14.73" duration="80.10" routeLength="540.89" waitingTime="10.70" waitingCount="2" stopTime="0.00" timeLoss="40.11" rerouteNo="0" devices="tripinfo_flow2.14" vType="vtypeauto" speedFactor="1.06" vaporized=""/>
    <tripinfo id="flow6.11" depart="30.80" departLane="D4D3_0" departPos="4.10" departSpeed="0.00" departDelay="19.80" arrival="119.50" arrivalLane="D1D0_1" arrivalPos="79.20" arrivalSpeed="13.36" duration="88.70" routeLength="375.10" waitingTime="46.50" waitingCount="1" stopTime="0.00" timeLoss="60.71" rerouteNo="0" devices="tripinfo_flow6.11" vType="vtypeauto" speedFactor="0.97" vaporized=""/>
    <tripinfo id="flow0.0" depart="0.00" departLane="B4B3_0" departPos="4.10" departSpeed="0.00" departDelay="0.00" arrival="120.40" arrivalLane="B3A3_1" arrivalPos="79.20" arrivalSpeed="14.64" duration="120.40" routeLength="570.75" waitingTime="59.20" waitingCount="2" stopTime="0.00" timeLoss="79.62" rerouteNo="0" devices="tripinfo_flow0.0" vType="vtypeauto" speedFactor="1.06" vaporized=""/>
    <tripinfo id="flow6.13" depart="36.30" departLane="D4D3_0" departPos="4.10" departSpeed="0.00" departDelay="23.30" arrival="121.50" arrivalLane="D1D0_1" arrivalPos="79.20" arrivalSpeed="12.59" duration="85.20" routeLength="375.10" waitingTime="41.90" waitingCount="1" stopTime="0.00" timeLoss="55.40" rerouteNo="0" devices="tripinfo_flow6.13" vType="vtypeauto" speedFactor="0.91" vaporized=""/>
    <tripinfo id="flow2.10" depart="27.90" departLane="A0A1_0" departPos="4.10" departSpeed="0.00" departDelay="17.90" arrival="122.20" arrivalLane="C3D3_0" arrivalPos="79.20" arrivalSpeed="12.95" duration="94.30" routeLength="540.89" waitingTime="10.00" waitingCount="3" stopTime="0.00" timeLoss="49.02" rerouteNo="0" devices="tripinfo_flow2.10" vType="vtypeauto" speedFactor="0.94" vaporized=""/>
    <tripinfo id="flow6.15" depart="41.80" departLane="D4D3_0" departPos="4.10" departSpeed="0.00" departDelay="26.80" arrival="123.70" arrivalLane="D1D0_1" arrivalPos="79.20" arrivalSpeed="11.97" duration="81.90" routeLength="375.10" waitingTime="37.30" waitingCount="1" stopTime="0.00" timeLoss="50.70" rerouteNo="0" devices="tripinfo_flow6.15" vType="vtypeauto" speedFactor="0.87" vaporized=""/>
    <tripinfo id="flow2.13" depart="36.30" departLane="A0A1_0" departPos="4.10" departSpeed="0.00" departDelay="23.30" arrival="124.60" arrivalLane="C3D3_0" arrivalPos="79.20" arrivalSpeed="12.75" duration="88.30" routeLength="540.89" waitingTime="9.10" waitingCount="1" stopTime="0.00" timeLoss="42.13" rerouteNo="0" devices="tripinfo_flow2.13" vType="vtypeauto" speedFactor="0.92" vaporized=""/>
    <tripinfo id="flow6.17" depart="47.40" departLane="D4D3_0" departPos="4.10" departSpeed="0.00" departDelay="30.40" arrival="125.20" arrivalLane="D1D0_1" arrivalPos="79.20" arrivalSpeed="14.76" duration="77.80" routeLength="375.10" waitingTime="33.80" waitingCount="1" stopTime="0.00" timeLoss="54.36" rerouteNo="0" devices="tripinfo_flow6.17" vType="vtypeauto" speedFactor="1.15" vaporized=""/>
    <tripinfo id="flow4.11" depart="33.50" departLane="C0C1_0" departPos="4.10" departSpeed="0.00" departDelay="22.50" arrival="125.60" arrivalLane="C3C4_1" arrivalPos="79.20" arrivalSpeed="13.83" duration="92.10" routeLength="375.10" waitingTime="45.70" waitingCount="1" stopTime="0.00" timeLoss="65.04" rerouteNo="0" devices="tripinfo_flow4.11" vType="vtypeauto" speedFactor="1.00" vaporized=""/>
    <tripinfo id="flow2.15" depart="41.90" departLane="A0A1_0" departPos="4.10" departSpeed="0.00" departDelay="26.90" arrival="126.20" arrivalLane="C3D3_0" arrivalPos="79.20" arrivalSpeed="14.25" duration="84.30" routeLength="540.89" waitingTime="3.00" waitingCount="1" stopTime="0.00" timeLoss="43.21" rerouteNo="0" devices="tripinfo_flow2.15" vType="vtypeauto" speedFactor="1.03" vaporized=""/>
    <tripinfo id="flow6.19" depart="52.80" departLane="D4D3_0" departPos="4.10" departSpeed="0.00" departDelay="33.80" arrival="126.80" arrivalLane="D1D0_1" arrivalPos="79.20" arrivalSpeed="13.17" duration="74.00" routeLength="375.10" waitingTime="26.20" waitingCount="2" stopTime="0.00" timeLoss="45.67" rerouteNo="0" devices="tripinfo_flow6.19" vType="vtypeauto" speedFactor="0.95" vaporized=""/>
    <tripinfo id="flow4.10" depart="30.60" departLane="C0C1_0" departPos="4.10" departSpeed="0.00" departDelay="20.60" arrival="127.40" arrivalLane="C3C4_1" arrivalPos="79.20" arrivalSpeed="13.16" duration="96.80" routeLength="375.10" waitingTime="59.10" waitingCount="1" stopTime="0.00" timeLoss="68.51" rerouteNo="0" devices="tripinfo_flow4.10" vType="vtypeauto" speedFactor="0.96" vaporized=""/>
    <tripinfo id="flow2.16" depart="44.70" departLane="A0A1_0" departPos="4.10" departSpeed="0.00" departDelay="28.70" arrival="128.00" arrivalLane="C3D3_0" arrivalPos="79.20" arrivalSpeed="15.12" duration="83.30" routeLength="540.89" waitingTime="8.20" waitingCount="1" stopTime="0.00" timeLoss="44.38" rerouteNo="0" devices="tripinfo_flow2.16" vType="vtypeauto" speedFactor="1.10" vaporized=""/>
    <tripinfo id="flow6.21" depart="58.30" departLane="D4D3_0" departPos="4.10" departSpeed="0.00" departDelay="37.30" arrival="128.50" arrivalLane="D1D0_1" arrivalPos="79.20" arrivalSpeed="12.83" duration="70.20" routeLength="375.10" waitingTime="29.30" waitingCount="1" stopTime="0.00" timeLoss="41.01" rerouteNo="0" devices="tripinfo_flow6.21" vType="vtypeauto" speedFactor="0.93" vaporized=""/>
    <tripinfo id="flow0.8" depart="14.40" departLane="B4B3_0" departPos="4.10" departSpeed="0.00" departDelay="6.40" arrival="128.90" arrivalLane="B3A3_1" arrivalPos="79.20" arrivalSpeed="12.43" duration="114.50" routeLength="570.75" waitingTime="44.80" waitingCount="4" stopTime="0.00" timeLoss="66.36" rerouteNo="0" devices="tripinfo_flow0.8" vType="vtypeauto" speedFactor="0.90" vaporized=""/>
    <tripinfo id="flow4.12" depart="36.40" departLane="C0C1_0" departPos="4.10" departSpeed="0.00" departDelay="24.40" arrival="129.00" arrivalLane="C3C4_1" arrivalPos="79.20" arrivalSpeed="13.90" duration="92.60" routeLength="375.10" waitingTime="51.20" waitingCount="1" stopTime="0.00" timeLoss="65.71" rerouteNo="0" devices="tripinfo_flow4.12" vType="vtypeauto" speedFactor="1.01" vaporized=""/>
    <tripinfo id="flow6.23" depart="63.90" departLane="D4D3_0" departPos="4.10" departSpeed="0.00" departDelay="40.90" arrival="130.00" arrivalLane="D1D0_1" arrivalPos="79.20" arrivalSpeed="14.22" duration="66.10" routeLength="375.10" waitingTime="21.40" waitingCount="1" stopTime="0.00" timeLoss="39.81" rerouteNo="0" devices="tripinfo_flow6.23" vType="vtypeauto" speedFactor="1.03" vaporized=""/>
    <tripinfo id="flow0.9" depart="17.30" departLane="B4B3_0" departPos="4.10" departSpeed="0.00" departDelay="8.30" arrival="130.40" arrivalLane="B3A3_1" arrivalPos="79.20" arrivalSpeed="13.63" duration="113.10" routeLength="570.75" waitingTime="36.90" waitingCount="3" stopTime="0.00" timeLoss="69.35" rerouteNo="0" devices="tripinfo_flow0.9" vType="vtypeauto" speedFactor="0.99" vaporized=""/>
    <tripinfo id="flow4.14" depart="42.20" departLane="C0C1_0" departPos="4.10" departSpeed="0.00" departDelay="28.20" arrival="130.60" arrivalLane="C3C4_1" arrivalPos="79.20" arrivalSpeed="13.42" duration="88.40" routeLength="375.10" waitingTime="46.10" waitingCount="1" stopTime="0.00" timeLoss="60.47" rerouteNo="0" devices="tripinfo_flow4.14" vType="vtypeauto" speedFactor="0.97" vaporized=""/>
    <tripinfo id="flow4.9" depart="27.70" departLane="C0C1_0" departPos="4.10" departSpeed="0.00" departDelay="18.70" arrival="130.70" arrivalLane="C3C4_0" arrivalPos="79.20" arrivalSpeed="12.61" duration="103.00" routeLength="375.10" waitingTime="53.40" waitingCount="1" stopTime="0.00" timeLoss="73.39" rerouteNo="0" devices="tripinfo_flow4.9" vType="vtypeauto" speedFactor="0.91" vaporized=""/>
    <tripinfo id="flow6.25" depart="69.40" departLane="D4D3_0" departPos="4.10" departSpeed="0.00" departDelay="44.40" arrival="131.50" arrivalLane="D1D0_1" arrivalPos="79.20" arrivalSpeed="14.21" duration="62.10" routeLength="375.10" waitingTime="17.00" waitingCount="1" stopTime="0.00" timeLoss="35.73" rerouteNo="0" devices="tripinfo_flow6.25" vType="vtypeauto" speedFactor="1.03" vaporized=""/>
    <tripinfo id="flow4.13" depart="39.30" departLane="C0C1_0" departPos="4.10" departSpeed="0.00" departDelay="26.30" arrival="132.10" arrivalLane="C3C4_0" arrivalPos="79.20" arrivalSpeed="14.66" duration="92.80" routeLength="375.10" waitingTime="41.10" waitingCount="1" stopTime="0.00" timeLoss="67.24" rerouteNo="0" devices="tripinfo_flow4.13" vType="vtypeauto" speedFactor="1.06" vaporized=""/>
    <tripinfo id="flow4.16" depart="47.90" departLane="C0C1_0" departPos="4.10" departSpeed="0.00" departDelay="31.90" arrival="132.10" arrivalLane="C3C4_1" arrivalPos="79.20" arrivalSpeed="16.10" duration="84.20" routeLength="375.10" waitingTime="42.20" waitingCount="1" stopTime="0.00" timeLoss="61.18" rerouteNo="0" devices="tripinfo_flow4.16" vType="vtypeauto" speedFactor="1.18" vaporized=""/>
    <tripinfo id="flow0.11" depart="20.20" departLane="B4B3_0" departPos="4.10" departSpeed="0.00" departDelay="9.20" arrival="132.30" arrivalLane="B3A3_1" arrivalPos="79.20" arrivalSpeed="13.55" duration="112.10" routeLength="570.75" waitingTime="30.60" waitingCount="3" stopTime="0.00" timeLoss="68.03" rerouteNo="0" devices="tripinfo_flow0.11" vType="vtypeauto" speedFactor="0.98" vaporized=""/>
    <tripinfo id="flow4.19" depart="56.60" departLane="C0C1_0" departPos="4.10" departSpeed="0.00" departDelay="37.60" arrival="133.70" arrivalLane="C3C4_1" arrivalPos="79.20" arrivalSpeed="13.98" duration="77.10" routeLength="375.10" waitingTime="27.00" waitingCount="1" stopTime="0.00" timeLoss="50.43" rerouteNo="0" devices="tripinfo_flow4.19" vType="vtypeauto" speedFactor="1.02" vaporized=""/>
    <tripinfo id="flow4.15" depart="45.00" departLane="C0C1_0" departPos="4.10" departSpeed="0.00" departDelay="30.00" arrival="133.80" arrivalLane="C3C4_0" arrivalPos="79.20" arrivalSpeed="13.28" duration="88.80" routeLength="375.10" waitingTime="36.00" waitingCount="1" stopTime="0.00" timeLoss="60.58" rerouteNo="0" devices="tripinfo_flow4.15" vType="vtypeauto" speedFactor="0.96" vaporized=""/>
    <tripinfo id="flow6.27" depart="75.00" departLane="D4D3_0" departPos="4.10" departSpeed="0.00" departDelay="48.00" arrival="134.10" arrivalLane="D1D0_1" arrivalPos="79.20" arrivalSpeed="11.61" duration="59.10" routeLength="375.10" waitingTime="12.50" waitingCount="1" stopTime="0.00" timeLoss="26.99" rerouteNo="0" devices="tripinfo_flow6.27" vType="vtypeauto" speedFactor="0.84" vaporized=""/>
    <tripinfo id="flow4.17" depart="50.80" departLane="C0C1_0" departPos="4.10" departSpeed="0.00" departDelay="33.80" arrival="135.30" arrivalLane="C3C4_0" arrivalPos="79.20" arrivalSpeed="14.13" duration="84.50" routeLength="375.10" waitingTime="31.70" waitingCount="1" stopTime="0.00" timeLoss="58.03" rerouteNo="0" devices="tripinfo_flow4.17" vType="vtypeauto" speedFactor="1.02" vaporized=""/>
    <tripinfo id="flow6.29" depart="80.60" departLane="D4D3_0" departPos="4.10" departSpeed="0.00" departDelay="51.60" arrival="135.70" arrivalLane="D1D0_1" arrivalPos="79.20" arrivalSpeed="13.57" duration="55.10" routeLength="375.10" waitingTime="8.40" waitingCount="1" stopTime="0.00" timeLoss="27.59" rerouteNo="0" devices="tripinfo_flow6.29" vType="vtypeauto" speedFactor="0.98" vaporized=""/>