<?xml version="1.0" encoding="UTF-8"?>

<!-- generated on 2024-09-08 19:16:17 by Eclipse SUMO GUI Version 1.20.0
<configuration xmlns:xsi="http://www.w3.org/2001/XMLSchema-instance" xsi:noNamespaceSchemaLocation="http://sumo.dlr.de/xsd/sumoConfiguration.xsd">

    <input>
        <net-file value="sim_cfg_grid_2_lanes/grid.net.xml"/>
        <route-files value="sim_cfg_grid_2_lanes/grid.rou.xml"/>
    </input>

    <output>
        <tripinfo-output value="sim_cfg_grid_2_lanes/tripinfo.xml"/>
    </output>

    <time>
        <begin value="0"/>
        <end value="500"/>
        <step-length value="0.1"/>
    </time>

    <traci_server>
        <remote-port value="49449"/>
    </traci_server>

    <gui_only>
        <gui-settings-file value="sim_cfg_grid_2_lanes/gui_settings.xml"/>
    </gui_only>

</configuration>
-->

<tripinfos xmlns:xsi="http://www.w3.org/2001/XMLSchema-instance" xsi:noNamespaceSchemaLocation="http://sumo.dlr.de/xsd/tripinfo_file.xsd">
    <tripinfo id="flow1.1" depart="2.70" departLane="A3B3_0" departPos="4.10" departSpeed="0.00" departDelay="1.70" arrival="50.60" arrivalLane="D3E3_1" arrivalPos="79.20" arrivalSpeed="14.21" duration="47.90" routeLength="375.10" waitingTime="8.40" waitingCount="2" stopTime="0.00" timeLoss="21.65" rerouteNo="0" devices="tripinfo_flow1.1" vType="vtypeauto" speedFactor="1.03" vaporized=""/>
    <tripinfo id="flow1.0" depart="0.00" departLane="A3B3_0" departPos="4.10" departSpeed="0.00" departDelay="0.00" arrival="51.10" arrivalLane="D3E3_0" arrivalPos="79.20" arrivalSpeed="13.00" duration="51.10" routeLength="375.10" waitingTime="10.70" waitingCount="2" stopTime="0.00" timeLoss="22.24" rerouteNo="0" devices="tripinfo_flow1.0" vType="vtypeauto" speedFactor="0.94" vaporized=""/>
    <tripinfo id="flow1.3" depart="8.20" departLane="A3B3_0" departPos="4.10" departSpeed="0.00" departDelay="5.20" arrival="52.00" arrivalLane="D3E3_1" arrivalPos="79.20" arrivalSpeed="15.04" duration="43.80" routeLength="375.10" waitingTime="0.00" waitingCount="0" stopTime="0.00" timeLoss="19.05" rerouteNo="0" devices="tripinfo_flow1.3" vType="vtypeauto" speedFactor="1.09" vaporized=""/>
    <tripinfo id="flow1.2" depart="5.40" departLane="A3B3_0" departPos="4.10" departSpeed="0.00" departDelay="3.40" arrival="52.80" arrivalLane="D3E3_0" arrivalPos="79.20" arrivalSpeed="12.18" duration="47.40" routeLength="375.10" waitingTime="0.00" waitingCount="0" stopTime="0.00" timeLoss="16.91" rerouteNo="0" devices="tripinfo_flow1.2" vType="vtypeauto" speedFactor="0.89" vaporized=""/>
    <tripinfo id="flow1.6" depart="16.60" departLane="A3B3_0" departPos="4.10" departSpeed="0.00" departDelay="10.60" arrival="53.40" arrivalLane="D3E3_1" arrivalPos="79.20" arrivalSpeed="16.05" duration="36.80" routeLength="375.10" waitingTime="0.00" waitingCount="0" stopTime="0.00" timeLoss="13.49" rerouteNo="0" devices="tripinfo_flow1.6" vType="vtypeauto" speedFactor="1.16" vaporized=""/>
    <tripinfo id="flow1.4" depart="11.00" departLane="A3B3_0" departPos="4.10" departSpeed="0.00" departDelay="7.00" arrival="54.30" arrivalLane="D3E3_0" arrivalPos="79.20" arrivalSpeed="15.18" duration="43.30" routeLength="375.10" waitingTime="0.00" waitingCount="0" stopTime="0.00" timeLoss="19.21" rerouteNo="0" devices="tripinfo_flow1.4" vType="vtypeauto" speedFactor="1.12" vaporized=""/>
    <tripinfo id="flow1.7" depart="19.40" departLane="A3B3_0" departPos="4.10" departSpeed="0.00" departDelay="12.40" arrival="55.20" arrivalLane="D3E3_1" arrivalPos="79.20" arrivalSpeed="13.48" duration="35.80" routeLength="375.10" waitingTime="0.00" waitingCount="0" stopTime="0.00" timeLoss="8.08" rerouteNo="0" devices="tripinfo_flow1.7" vType="vtypeauto" speedFactor="0.97" vaporized=""/>
    <tripinfo id="flow1.5" depart="13.80" departLane="A3B3_0" departPos="4.10" departSpeed="0.00" departDelay="8.80" arrival="56.10" arrivalLane="D3E3_0" arrivalPos="79.20" arrivalSpeed="12.15" duration="42.30" routeLength="375.10" waitingTime="0.00" waitingCount="0" stopTime="0.00" timeLoss="11.53" rerouteNo="0" devices="tripinfo_flow1.5" vType="vtypeauto" speedFactor="0.88" vaporized=""/>
    <tripinfo id="flow1.8" depart="22.10" departLane="A3B3_0" departPos="4.10" departSpeed="0.00" departDelay="14.10" arrival="57.80" arrivalLane="D3E3_0" arrivalPos="79.20" arrivalSpeed="12.04" duration="35.70" routeLength="375.10" waitingTime="0.00" waitingCount="0" stopTime="0.00" timeLoss="4.69" rerouteNo="0" devices="tripinfo_flow1.8" vType="vtypeauto" speedFactor="0.87" vaporized=""/>
    <tripinfo id="flow2.0" depart="0.00" departLane="A0A1_0" departPos="4.10" departSpeed="0.00" departDelay="0.00" arrival="59.20" arrivalLane="C3D3_0" arrivalPos="79.20" arrivalSpeed="13.98" duration="59.20" routeLength="540.89" waitingTime="5.70" waitingCount="1" stopTime="0.00" timeLoss="17.14" rerouteNo="0" devices="tripinfo_flow2.0" vType="vtypeauto" speedFactor="1.01" vaporized=""/>
    <tripinfo id="flow1.9" depart="24.90" departLane="A3B3_0" departPos="4.10" departSpeed="0.00" departDelay="15.90" arrival="59.30" arrivalLane="D3E3_0" arrivalPos="79.20" arrivalSpeed="14.84" duration="34.40" routeLength="375.10" waitingTime="0.00" waitingCount="0" stopTime="0.00" timeLoss="10.48" rerouteNo="0" devices="tripinfo_flow1.9" vType="vtypeauto" speedFactor="1.13" vaporized=""/>
    <tripinfo id="flow1.10" depart="27.70" departLane="A3B3_0" departPos="4.10" departSpeed="0.00" departDelay="17.70" arrival="60.70" arrivalLane="D3E3_0" arrivalPos="79.20" arrivalSpeed="15.92" duration="33.00" routeLength="375.10" waitingTime="0.00" waitingCount="0" stopTime="0.00" timeLoss="9.52" rerouteNo="0" devices="tripinfo_flow1.10" vType="vtypeauto" speedFactor="1.15" vaporized=""/>
    <tripinfo id="flow1.12" depart="33.30" departLane="A3B3_0" departPos="4.10" departSpeed="0.00" departDelay="21.30" arrival="72.50" arrivalLane="D3E3_1" arrivalPos="79.20" arrivalSpeed="16.29" duration="39.20" routeLength="375.10" waitingTime="6.40" waitingCount="1" stopTime="0.00" timeLoss="16.28" rerouteNo="0" devices="tripinfo_flow1.12" vType="vtypeauto" speedFactor="1.18" vaporized=""/>
    <tripinfo id="flow1.11" depart="30.50" departLane="A3B3_0" departPos="4.10" departSpeed="0.00" departDelay="19.50" arrival="74.10" arrivalLane="D3E3_0" arrivalPos="79.20" arrivalSpeed="13.72" duration="43.60" routeLength="375.10" waitingTime="8.50" waitingCount="1" stopTime="0.00" timeLoss="16.37" rerouteNo="0" devices="tripinfo_flow1.11" vType="vtypeauto" speedFactor="0.99" vaporized=""/>
    <tripinfo id="flow1.14" depart="38.90" departLane="A3B3_0" departPos="4.10" departSpeed="0.00" departDelay="24.90" arrival="75.00" arrivalLane="D3E3_1" arrivalPos="79.20" arrivalSpeed="14.35" duration="36.10" routeLength="375.10" waitingTime="0.00" waitingCount="0" stopTime="0.00" timeLoss="10.08" rerouteNo="0" devices="tripinfo_flow1.14" vType="vtypeauto" speedFactor="1.04" vaporized=""/>
    <tripinfo id="flow1.13" depart="36.10" departLane="A3B3_0" departPos="4.10" departSpeed="0.00" departDelay="23.10" arrival="75.60" arrivalLane="D3E3_0" arrivalPos="79.20" arrivalSpeed="14.22" duration="39.50" routeLength="375.10" waitingTime="0.00" waitingCount="0" stopTime="0.00" timeLoss="13.25" rerouteNo="0" devices="tripinfo_flow1.13" vType="vtypeauto" speedFactor="1.03" vaporized=""/>
    <tripinfo id="flow1.15" depart="41.60" departLane="A3B3_0" departPos="4.10" departSpeed="0.00" departDelay="26.60" arrival="77.20" arrivalLane="D3E3_0" arrivalPos="79.20" arrivalSpeed="13.78" duration="35.60" routeLength="375.10" waitingTime="0.00" waitingCount="0" stopTime="0.00" timeLoss="8.51" rerouteNo="0" devices="tripinfo_flow1.15" vType="vtypeauto" speedFactor="1.00" vaporized=""/>
    <tripinfo id="flow1.17" depart="47.10" departLane="A3B3_0" departPos="4.10" departSpeed="0.00" departDelay="30.10" arrival="77.70" arrivalLane="D3E3_1" arrivalPos="79.20" arrivalSpeed="14.01" duration="30.60" routeLength="375.10" waitingTime="0.00" waitingCount="0" stopTime="0.00" timeLoss="3.97" rerouteNo="0" devices="tripinfo_flow1.17" vType="vtypeauto" speedFactor="1.02" vaporized=""/>
    <tripinfo id="flow1.16" depart="44.30" departLane="A3B3_0" departPos="4.10" departSpeed="0.00" departDelay="28.30" arrival="80.60" arrivalLane="D3E3_0" arrivalPos="79.20" arrivalSpeed="11.81" duration="36.30" routeLength="375.10" waitingTime="0.00" waitingCount="0" stopTime="0.00" timeLoss="4.51" rerouteNo="0" devices="tripinfo_flow1.16" vType="vtypeauto" speedFactor="0.85" vaporized=""/>
    <tripinfo id="flow2.1" depart="2.80" departLane="A0A1_0" departPos="4.10" departSpeed="0.00" departDelay="1.80" arrival="83.60" arrivalLane="C3D3_0" arrivalPos="79.20" arrivalSpeed="11.44" duration="80.80" routeLength="540.89" waitingTime="12.30" waitingCount="2" stopTime="0.00" timeLoss="29.67" rerouteNo="0" devices="tripinfo_flow2.1" vType="vtypeauto" speedFactor="0.83" vaporized=""/>
    <tripinfo id="flow2.2" depart="5.60" departLane="A0A1_0" departPos="4.10" departSpeed="0.00" departDelay="3.60" arrival="84.80" arrivalLane="C3D3_0" arrivalPos="79.20" arrivalSpeed="13.20" duration="79.20" routeLength="540.89" waitingTime="7.90" waitingCount="2" stopTime="0.00" timeLoss="35.07" rerouteNo="0" devices="tripinfo_flow2.2" vType="vtypeauto@flow2.2" speedFactor="1.01" vaporized=""/>
    <tripinfo id="flow2.3" depart="8.40" departLane="A0A1_0" departPos="4.10" departSpeed="0.00" departDelay="5.40" arrival="85.90" arrivalLane="C3D3_0" arrivalPos="79.20" arrivalSpeed="13.99" duration="77.50" routeLength="540.89" waitingTime="5.80" waitingCount="2" stopTime="0.00" timeLoss="36.64" rerouteNo="0" devices="tripinfo_flow2.3" vType="vtypeauto@flow2.3" speedFactor="1.01" vaporized=""/>
    <tripinfo id="flow2.4" depart="11.30" departLane="A0A1_0" departPos="4.10" departSpeed="0.00" departDelay="7.30" arrival="87.00" arrivalLane="C3D3_0" arrivalPos="79.20" arrivalSpeed="13.93" duration="75.70" routeLength="540.89" waitingTime="4.10" waitingCount="3" stopTime="0.00" timeLoss="33.58" rerouteNo="0" devices="tripinfo_flow2.4" vType="vtypeauto@flow2.4" speedFactor="1.01" vaporized=""/>
    <tripinfo id="flow2.5" depart="14.10" departLane="A0A1_0" departPos="4.10" departSpeed="0.00" departDelay="9.10" arrival="88.10" arrivalLane="C3D3_0" arrivalPos="79.20" arrivalSpeed="14.92" duration="74.00" routeLength="540.89" waitingTime="2.00" waitingCount="3" stopTime="0.00" timeLoss="33.18" rerouteNo="0" devices="tripinfo_flow2.5" vType="vtypeauto@flow2.5" speedFactor="2.15" vaporized=""/>
    <tripinfo id="flow2.9" depart="25.20" departLane="A0A1_0" departPos="4.10" departSpeed="0.00" departDelay="16.20" arrival="89.80" arrivalLane="C3D3_0" arrivalPos="79.20" arrivalSpeed="12.87" duration="64.60" routeLength="540.89" waitingTime="4.00" waitingCount="2" stopTime="0.00" timeLoss="18.98" rerouteNo="0" devices="tripinfo_flow2.9" vType="vtypeauto" speedFactor="0.93" vaporized=""/>
    <tripinfo id="flow2.10" depart="27.90" departLane="A0A1_0" departPos="4.10" departSpeed="0.00" departDelay="17.90" arrival="106.90" arrivalLane="C3D3_0" arrivalPos="79.20" arrivalSpeed="13.92" duration="79.00" routeLength="540.89" waitingTime="10.90" waitingCount="4" stopTime="0.00" timeLoss="36.74" rerouteNo="0" devices="tripinfo_flow2.10" vType="vtypeauto" speedFactor="1.01" vaporized=""/>
    <tripinfo id="flow2.11" depart="30.70" departLane="A0A1_0" departPos="4.10" departSpeed="0.00" departDelay="19.70" arrival="107.90" arrivalLane="C3D3_0" arrivalPos="79.20" arrivalSpeed="13.48" duration="77.20" routeLength="540.89" waitingTime="7.40" waitingCount="2" stopTime="0.00" timeLoss="36.19" rerouteNo="0" devices="tripinfo_flow2.11" vType="vtypeauto@flow2.11" speedFactor="1.01" vaporized=""/>
    <tripinfo id="flow2.6" depart="16.90" departLane="A0A1_0" departPos="4.10" departSpeed="0.00" departDelay="10.90" arrival="109.00" arrivalLane="C3D3_0" arrivalPos="79.20" arrivalSpeed="13.20" duration="92.10" routeLength="540.89" waitingTime="5.50" waitingCount="2" stopTime="0.00" timeLoss="50.90" rerouteNo="0" devices="tripinfo_flow2.6" vType="vtypeauto@flow2.6" speedFactor="1.01" vaporized=""/>
    <tripinfo id="flow2.12" depart="33.40" departLane="A0A1_0" departPos="4.10" departSpeed="0.00" departDelay="21.40" arrival="110.20" arrivalLane="C3D3_0" arrivalPos="79.20" arrivalSpeed="12.67" duration="76.80" routeLength="540.89" waitingTime="8.40" waitingCount="4" stopTime="0.00" timeLoss="38.14" rerouteNo="0" devices="tripinfo_flow2.12" vType="vtypeauto@flow2.12" speedFactor="1.01" vaporized=""/>
    <tripinfo id="flow2.7" depart="19.60" departLane="A0A1_0" departPos="4.10" departSpeed="0.00" departDelay="12.60" arrival="111.30" arrivalLane="C3D3_0" arrivalPos="79.20" arrivalSpeed="13.23" duration="91.70" routeLength="540.89" waitingTime="4.70" waitingCount="4" stopTime="0.00" timeLoss="45.80" rerouteNo="0" devices="tripinfo_flow2.7" vType="vtypeauto@flow2.7" speedFactor="1.01" vaporized=""/>
    <tripinfo id="flow2.8" depart="22.40" departLane="A0A1_0" departPos="4.10" departSpeed="0.00" departDelay="14.40" arrival="112.40" arrivalLane="C3D3_0" arrivalPos="79.20" arrivalSpeed="13.86" duration="90.00" routeLength="540.89" waitingTime="9.10" waitingCount="4" stopTime="0.00" timeLoss="45.32" rerouteNo="0" devices="tripinfo_flow2.8" vType="vtypeauto@flow2.8" speedFactor="1.01" vaporized=""/>
    <tripinfo id="flow2.13" depart="36.20" departLane="A0A1_0" departPos="4.10" departSpeed="0.00" departDelay="23.20" arrival="113.50" arrivalLane="C3D3_0" arrivalPos="79.20" arrivalSpeed="13.98" duration="77.30" routeLength="540.89" waitingTime="6.90" waitingCount="1" stopTime="0.00" timeLoss="34.04" rerouteNo="0" devices="tripinfo_flow2.13" vType="vtypeauto@flow2.13" speedFactor="1.01" vaporized=""/>
    <tripinfo id="flow2.15" depart="41.80" departLane="A0A1_0" departPos="4.10" departSpeed="0.00" departDelay="26.80" arrival="114.60" arrivalLane="C3D3_0" arrivalPos="79.20" arrivalSpeed="14.79" duration="72.80" routeLength="540.89" waitingTime="4.90" waitingCount="1" stopTime="0.00" timeLoss="30.55" rerouteNo="0" devices="tripinfo_flow2.15" vType="vtypeauto@flow2.15" speedFactor="2.15" vaporized=""/>
    <tripinfo id="flow1.19" depart="52.70" departLane="A3B3_0" departPos="4.10" departSpeed="0.00" departDelay="33.70" arrival="118.70" arrivalLane="D3E3_1" arrivalPos="79.20" arrivalSpeed="14.14" duration="66.00" routeLength="375.10" waitingTime="26.70" waitingCount="2" stopTime="0.00" timeLoss="39.58" rerouteNo="0" devices="tripinfo_flow1.19" vType="vtypeauto" speedFactor="1.02" vaporized=""/>
    <tripinfo id="flow1.21" depart="58.30" departLane="A3B3_0" departPos="4.10" departSpeed="0.00" departDelay="37.30" arrival="121.20" arrivalLane="D3E3_1" arrivalPos="79.20" arrivalSpeed="12.91" duration="62.90" routeLength="375.10" waitingTime="17.00" waitingCount="1" stopTime="0.00" timeLoss="34.02" rerouteNo="0" devices="tripinfo_flow1.21" vType="vtypeauto" speedFactor="0.94" vaporized=""/>
    <tripinfo id="flow1.23" depart="63.90" departLane="A3B3_0" departPos="4.10" departSpeed="0.00" departDelay="40.90" arrival="122.70" arrivalLane="D3E3_1" arrivalPos="79.20" arrivalSpeed="14.21" duration="58.80" routeLength="375.10" waitingTime="12.60" waitingCount="1" stopTime="0.00" timeLoss="32.34" rerouteNo="0" devices="tripinfo_flow1.23" vType="vtypeauto" speedFactor="1.02" vaporized=""/>
    <tripinfo id="flow1.18" depart="49.90" departLane="A3B3_0" departPos="4.10" departSpeed="0.00" departDelay="31.90" arrival="123.30" arrivalLane="D3E3_0" arrivalPos="79.20" arrivalSpeed="13.72" duration="73.40" routeLength="375.10" waitingTime="29.80" waitingCount="3" stopTime="0.00" timeLoss="46.25" rerouteNo="0" devices="tripinfo_flow1.18" vType="vtypeauto" speedFactor="1.00" vaporized=""/>
    <tripinfo id="flow1.25" depart="69.50" departLane="A3B3_0" departPos="4.10" departSpeed="0.00" departDelay="44.50" arrival="124.20" arrivalLane="D3E3_1" arrivalPos="79.20" arrivalSpeed="14.23" duration="54.70" routeLength="375.10" waitingTime="8.10" waitingCount="1" stopTime="0.00" timeLoss="28.50" rerouteNo="0" devices="tripinfo_flow1.25" vType="vtypeauto" speedFactor="1.03" vaporized=""/>
    <tripinfo id="flow1.20" depart="55.50" departLane="A3B3_0" departPos="4.10" departSpeed="0.00" departDelay="35.50" arrival="124.60" arrivalLane="D3E3_0" arrivalPos="79.20" arrivalSpeed="13.97" duration="69.10" routeLength="375.10" waitingTime="20.80" waitingCount="2" stopTime="0.00" timeLoss="42.72" rerouteNo="0" devices="tripinfo_flow1.20" vType="vtypeauto@flow1.20" speedFactor="1.01" vaporized=""/>
    <tripinfo id="flow1.27" depart="75.10" departLane="A3B3_0" departPos="4.10" departSpeed="0.00" departDelay="48.10" arrival="125.80" arrivalLane="D3E3_1" arrivalPos="79.20" arrivalSpeed="14.06" duration="50.70" routeLength="375.10" waitingTime="3.90" waitingCount="1" stopTime="0.00" timeLoss="24.06" rerouteNo="0" devices="tripinfo_flow1.27" vType="vtypeauto" speedFactor="1.02" vaporized=""/>
    <tripinfo id="flow1.22" depart="61.10" departLane="A3B3_0" departPos="4.10" departSpeed="0.00" departDelay="39.10" arrival="125.90" arrivalLane="D3E3_0" arrivalPos="79.20" arrivalSpeed="13.99" duration="64.80" routeLength="375.10" waitingTime="15.50" waitingCount="2" stopTime="0.00" timeLoss="37.51" rerouteNo="0" devices="tripinfo_flow1.22" vType="vtypeauto@flow1.22" speedFactor="1.01" vaporized=""/>
    <tripinfo id="flow1.24" depart="66.70" departLane="A3B3_0" departPos="4.10" departSpeed="0.00" departDelay="42.70" arrival="127.10" arrivalLane="D3E3_0" arrivalPos="79.20" arrivalSpeed="13.98" duration="60.40" routeLength="375.10" waitingTime="11.00" waitingCount="3" stopTime="0.00" timeLoss="33.77" rerouteNo="0" devices="tripinfo_flow1.24" vType="vtypeauto@flow1.24" speedFactor="1.01" vaporized=""/>
    <tripinfo id="flow1.29" depart="80.70" departLane="A3B3_0" departPos="4.10" departSpeed="0.00" departDelay="51.70" arrival="127.30" arrivalLane="D3E3_1" arrivalPos="79.20" arrivalSpeed="13.92" duration="46.60" routeLength="375.10" waitingTime="0.00" waitingCount="0" stopTime="0.00" timeLoss="19.77" rerouteNo="0" devices="tripinfo_flow1.29" vType="vtypeauto" speedFactor="1.01" vaporized=""/>
    <tripinfo id="flow1.26" depart="72.30" departLane="A3B3_0" departPos="4.10" departSpeed="0.00" departDelay="46.30" arrival="128.40" arrivalLane="D3E3_0" arrivalPos="79.20" arrivalSpeed="13.94" duration="56.10" routeLength="375.10" waitingTime="6.10" waitingCount="3" stopTime="0.00" timeLoss="29.51" rerouteNo="0" devices="tripinfo_flow1.26" vType="vtypeauto@flow1.26" speedFactor="1.01" vaporized=""/>
    <tripinfo id="flow1.31" depart="85.80" departLane="A3B3_0" departPos="4.10" departSpeed="0.00" departDelay="54.80" arrival="128.80" arrivalLane="D3E3_1" arrivalPos="79.20" arrivalSpeed="15.11" duration="43.00" routeLength="375.10" waitingTime="0.00" waitingCount="0" stopTime="0.00" timeLoss="18.20" rerouteNo="0" devices="tripinfo_flow1.31" vType="vtypeauto" speedFactor="1.09" vaporized=""/>
    <tripinfo id="flow1.28" depart="77.90" departLane="A3B3_0" departPos="4.10" departSpeed="0.00" departDelay="49.90" arrival="129.70" arrivalLane="D3E3_0" arrivalPos="79.20" arrivalSpeed="13.91" duration="51.80" routeLength="375.10" waitingTime="1.40" waitingCount="3" stopTime="0.00" timeLoss="24.89" rerouteNo="0" devices="tripinfo_flow1.28" vType="vtypeauto@flow1.28" speedFactor="1.01" vaporized=""/>
    <tripinfo id="flow1.33" depart="90.10" departLane="A3B3_0" departPos="4.10" departSpeed="0.00" departDelay="57.10" arrival="130.30" arrivalLane="D3E3_1" arrivalPos="79.20" arrivalSpeed="14.71" duration="40.20" routeLength="375.10" waitingTime="0.00" waitingCount="0" stopTime="0.00" timeLoss="14.82" rerouteNo="0" devices="tripinfo_flow1.33" vType="vtypeauto" speedFactor="1.06" vaporized=""/>
    <tripinfo id="flow1.30" depart="83.00" departLane="A3B3_0" departPos="4.10" departSpeed="0.00" departDelay="53.00" arrival="132.00" arrivalLane="D3E3_0" arrivalPos="79.20" arrivalSpeed="12.39" duration="49.00" routeLength="375.10" waitingTime="0.00" waitingCount="0" stopTime="0.00" timeLoss="18.70" rerouteNo="0" devices="tripinfo_flow1.30" vType="vtypeauto" speedFactor="0.89" vaporized=""/>
    <tripinfo id="flow1.35" depart="93.90" departLane="A3B3_0" departPos="4.10" departSpeed="0.00" departDelay="58.90" arrival="132.00" arrivalLane="D3E3_1" arrivalPos="79.20" arrivalSpeed="13.99" duration="38.10" routeLength="375.10" waitingTime="0.00" waitingCount="0" stopTime="0.00" timeLoss="11.41" rerouteNo="0" devices="tripinfo_flow1.35" vType="vtypeauto" speedFactor="1.01" vaporized=""/>
    <tripinfo id="flow1.37" depart="97.70" departLane="A3B3_0" departPos="4.10" departSpeed="0.00" departDelay="60.70" arrival="133.50" arrivalLane="D3E3_1" arrivalPos="79.20" arrivalSpeed="15.21" duration="35.80" routeLength="375.10" waitingTime="0.00" waitingCount="0" stopTime="0.00" timeLoss="11.13" rerouteNo="0" devices="tripinfo_flow1.37" vType="vtypeauto" speedFactor="1.10" vaporized=""/>
    <tripinfo id="flow1.32" depart="87.30" departLane="A3B3_0" departPos="4.10" departSpeed="0.00" departDelay="55.30" arrival="133.70" arrivalLane="D3E3_0" arrivalPos="79.20" arrivalSpeed="12.49" duration="46.40" routeLength="375.10" waitingTime="0.00" waitingCount="0" stopTime="0.00" timeLoss="16.53" rerouteNo="0" devices="tripinfo_flow1.32" vType="vtypeauto" speedFactor="0.91" vaporized=""/>
    <tripinfo id="flow1.34" depart="90.80" departLane="A3B3_0" departPos="4.10" departSpeed="0.00" departDelay="56.80" arrival="135.20" arrivalLane="D3E3_0" arrivalPos="79.20" arrivalSpeed="13.21" duration="44.40" routeLength="375.10" waitingTime="0.00" waitingCount="0" stopTime="0.00" timeLoss="16.04" rerouteNo="0" devices="tripinfo_flow1.34" vType="vtypeauto" speedFactor="0.95" vaporized=""/>
    <tripinfo id="flow1.39" depart="103.30" departLane="A3B3_0" departPos="4.10" departSpeed="0.00" departDelay="64.30" arrival="135.20" arrivalLane="D3E3_1" arrivalPos="79.20" arrivalSpeed="13.73" duration="31.90" routeLength="375.10" waitingTime="0.00" waitingCount="0" stopTime="0.00" timeLoss="4.62" rerouteNo="0" devices="tripinfo_flow1.39" vType="vtypeauto" speedFactor="0.99" vaporized=""/>
    <tripinfo id="flow1.40" depart="106.10" departLane="A3B3_0" departPos="4.10" departSpeed="0.00" departDelay="66.10" arrival="136.70" arrivalLane="D3E3_1" arrivalPos="79.20" arrivalSpeed="15.22" duration="30.60" routeLength="375.10" waitingTime="0.00" waitingCount="0" stopTime="0.00" timeLoss="6.05" rerouteNo="0" devices="tripinfo_flow1.40" vType="vtypeauto" speedFactor="1.10" vaporized=""/>
    <tripinfo id="flow1.36" depart="94.30" departLane="A3B3_0" departPos="4.10" departSpeed="0.00" departDelay="58.30" arrival="136.80" arrivalLane="D3E3_0" arrivalPos="79.20" arrivalSpeed="13.25" duration="42.50" routeLength="375.10" waitingTime="0.00" waitingCount="0" stopTime="0.00" timeLoss="14.33" rerouteNo="0" devices="tripinfo_flow1.36" vType="vtypeauto" speedFactor="0.96" vaporized=""/>
    <tripinfo id="flow1.38" depart="100.50" departLane="A3B3_0" departPos="4.10" departSpeed="0.00" departDelay="62.50" arrival="138.50" arrivalLane="D3E3_0" arrivalPos="79.20" arrivalSpeed="12.79" duration="38.00" routeLength="375.10" waitingTime="0.00" waitingCount="0" stopTime="0.00" timeLoss="8.67" rerouteNo="0" devices="tripinfo_flow1.38" vType="vtypeauto" speedFactor="0.92" vaporized=""/>
    <tripinfo id="flow1.41" depart="108.90" departLane="A3B3_0" departPos="4.10" departSpeed="0.00" departDelay="67.90" arrival="140.00" arrivalLane="D3E3_0" arrivalPos="79.20" arrivalSpeed="14.70" duration="31.10" routeLength="375.10" waitingTime="0.00" waitingCount="0" stopTime="0.00" timeLoss="5.59" rerouteNo="0" devices="tripinfo_flow1.41" vType="vtypeauto" speedFactor="1.06" vaporized=""/>
    <tripinfo id="flow2.14" depart="39.00" departLane="A0A1_0" departPos="4.10" departSpeed="0.00" departDelay="25.00" arrival="143.70" arrivalLane="C3D3_0" arrivalPos="79.20" arrivalSpeed="14.41" duration="104.70" routeLength="540.89" waitingTime="37.60" waitingCount="4" stopTime="0.00" timeLoss="63.92" rerouteNo="0" devices="tripinfo_flow2.14" vType="vtypeauto" speedFactor="1.04" vaporized=""/>
    <tripinfo id="flow2.16" depart="44.60" departLane="A0A1_0" departPos="4.10" departSpeed="0.00" departDelay="28.60" arrival="144.70" arrivalLane="C3D3_0" arrivalPos="79.20" arrivalSpeed="13.89" duration="100.10" routeLength="540.89" waitingTime="27.40" waitingCount="4" stopTime="0.00" timeLoss="52.36" rerouteNo="0" devices="tripinfo_flow2.16" vType="vtypeauto@flow2.16" speedFactor="1.01" vaporized=""/>
    <tripinfo id="flow2.17" depart="47.50" departLane="A0A1_0" departPos="4.10" departSpeed="0.00" departDelay="30.50" arrival="145.70" arrivalLane="C3D3_0" arrivalPos="79.20" arrivalSpeed="13.11" duration="98.20" routeLength="540.89" waitingTime="16.30" waitingCount="2" stopTime="0.00" timeLoss="59.40" rerouteNo="0" devices="tripinfo_flow2.17" vType="vtypeauto@flow2.17" speedFactor="1.01" vaporized=""/>
    <tripinfo id="flow2.18" depart="50.20" departLane="A0A1_0" departPos="4.10" departSpeed="0.00" departDelay="32.20" arrival="147.00" arrivalLane="C3D3_0" arrivalPos="79.20" arrivalSpeed="13.02" duration="96.80" routeLength="540.89" waitingTime="21.50" waitingCount="4" stopTime="0.00" timeLoss="51.11" rerouteNo="0" devices="tripinfo_flow2.18" vType="vtypeauto@flow2.18" speedFactor="1.01" vaporized=""/>
    <tripinfo id="flow2.19" depart="53.00" departLane="A0A1_0" departPos="4.10" departSpeed="0.00" departDelay="34.00" arrival="148.10" arrivalLane="C3D3_0" arrivalPos="79.20" arrivalSpeed="13.64" duration="95.10" routeLength="540.89" waitingTime="17.80" waitingCount="4" stopTime="0.00" timeLoss="52.24" rerouteNo="0" devices="tripinfo_flow2.19" vType="vtypeauto@flow2.19" speedFactor="1.01" vaporized=""/>
    <tripinfo id="flow2.22" depart="61.30" departLane="A0A1_0" departPos="4.10" departSpeed="0.00" departDelay="39.30" arrival="149.20" arrivalLane="C3D3_0" arrivalPos="79.20" arrivalSpeed="13.65" duration="87.90" routeLength="540.89" waitingTime="12.40" waitingCount="5" stopTime="0.00" timeLoss="47.33" rerouteNo="0" devices="tripinfo_flow2.22" vType="vtypeauto@flow2.22" speedFactor="1.01" vaporized=""/>
    <tripinfo id="flow2.23" depart="64.10" departLane="A0A1_0" departPos="4.10" departSpeed="0.00" departDelay="41.10" arrival="150.30" arrivalLane="C3D3_0" arrivalPos="79.20" arrivalSpeed="13.97" duration="86.20" routeLength="540.89" waitingTime="7.10" waitingCount="3" stopTime="0.00" timeLoss="43.49" rerouteNo="0" devices="tripinfo_flow2.23" vType="vtypeauto@flow2.23" speedFactor="1.01" vaporized=""/>
    <tripinfo id="flow2.24" depart="66.90" departLane="A0A1_0" departPos="4.10" departSpeed="0.00" departDelay="42.90" arrival="151.40" arrivalLane="C3D3_0" arrivalPos="79.20" arrivalSpeed="14.65" duration="84.50" routeLength="540.89" waitingTime="4.10" waitingCount="2" stopTime="0.00" timeLoss="44.25" rerouteNo="0" devices="tripinfo_flow2.24" vType="vtypeauto@flow2.24" speedFactor="2.15" vaporized=""/>
    <tripinfo id="flow2.20" depart="55.80" departLane="A0A1_0" departPos="4.10" departSpeed="0.00" departDelay="35.80" arrival="153.00" arrivalLane="C3D3_0" arrivalPos="79.20" arrivalSpeed="14.09" duration="97.20" routeLength="540.89" waitingTime="19.60" waitingCount="5" stopTime="0.00" timeLoss="55.35" rerouteNo="0" devices="tripinfo_flow2.20" vType="vtypeauto" speedFactor="1.02" vaporized=""/>
    <tripinfo id="flow2.25" depart="69.70" departLane="A0A1_0" departPos="4.10" departSpeed="0.00" departDelay="44.70" arrival="155.40" arrivalLane="C3D3_0" arrivalPos="79.20" arrivalSpeed="13.63" duration="85.70" routeLength="540.89" waitingTime="2.30" waitingCount="1" stopTime="0.00" timeLoss="42.33" rerouteNo="0" devices="tripinfo_flow2.25" vType="vtypeauto" speedFactor="0.98" vaporized=""/>
    <tripinfo id="flow2.21" depart="58.60" departLane="A0A1_0" departPos="4.10" departSpeed="0.00" departDelay="37.60" arrival="158.70" arrivalLane="C3D3_0" arrivalPos="79.20" arrivalSpeed="12.25" duration="100.10" routeLength="540.89" waitingTime="10.90" waitingCount="4" stopTime="0.00" timeLoss="51.79" rerouteNo="0" devices="tripinfo_flow2.21" vType="vtypeauto" speedFactor="0.88" vaporized=""/>
    <tripinfo id="flow2.26" depart="72.50" departLane="A0A1_0" departPos="4.10" departSpeed="0.00" departDelay="46.50" arrival="178.30" arrivalLane="C3D3_1" arrivalPos="79.20" arrivalSpeed="8.04" duration="105.80" routeLength="540.89" waitingTime="26.50" waitingCount="4" stopTime="0.00" timeLoss="64.76" rerouteNo="0" devices="tripinfo_flow2.26" vType="vtypeauto" speedFactor="1.03" vaporized=""/>
    <tripinfo id="flow0.0" depart="0.00" departLane="B4B3_0" departPos="4.10" departSpeed="0.00" departDelay="0.00" arrival="178.60" arrivalLane="B3A3_0" arrivalPos="79.20" arrivalSpeed="14.66" duration="178.60" routeLength="570.75" waitingTime="107.20" waitingCount="4" stopTime="0.00" timeLoss="137.81" rerouteNo="0" devices="tripinfo_flow0.0" vType="vtypeauto" speedFactor="1.06" vaporized=""/>
    <tripinfo id="flow2.27" depart="75.30" departLane="A0A1_0" departPos="4.10" departSpeed="0.00" departDelay="48.30" arrival="178.80" arrivalLane="C3D3_0" arrivalPos="79.20" arrivalSpeed="10.00" duration="103.50" routeLength="540.89" waitingTime="16.20" waitingCount="3" stopTime="0.00" timeLoss="59.50" rerouteNo="0" devices="tripinfo_flow2.27" vType="vtypeauto" speedFactor="0.97" vaporized=""/>
    <tripinfo id="flow0.2" depart="2.90" departLane="B4B3_0" departPos="4.10" departSpeed="0.00" departDelay="0.90" arrival="179.90" arrivalLane="B3A3_1" arrivalPos="79.20" arrivalSpeed="14.52" duration="177.00" routeLength="570.75" waitingTime="89.10" waitingCount="4" stopTime="0.00" timeLoss="135.71" rerouteNo="0" devices="tripinfo_flow0.2" vType="vtypeauto" speedFactor="1.05" vaporized=""/>