<?xml version="1.0" encoding="UTF-8"?>

<!-- generated on 2024-10-05 19:23:38 by Eclipse SUMO GUI Version 1.20.0
<configuration xmlns:xsi="http://www.w3.org/2001/XMLSchema-instance" xsi:noNamespaceSchemaLocation="http://sumo.dlr.de/xsd/sumoConfiguration.xsd">

    <input>
        <net-file value="sim_cfg_grid_2_lanes/grid.net.xml"/>
        <route-files value="sim_cfg_grid_2_lanes/grid.rou.xml"/>
    </input>

    <output>
        <tripinfo-output value="sim_cfg_grid_2_lanes/tripinfo.xml"/>
    </output>

    <time>
        <begin value="0"/>
        <end value="500"/>
        <step-length value="0.1"/>
    </time>

    <traci_server>
        <remote-port value="49656"/>
    </traci_server>

    <gui_only>
        <gui-settings-file value="sim_cfg_grid_2_lanes/gui_settings.xml"/>
    </gui_only>

</configuration>
-->

<tripinfos xmlns:xsi="http://www.w3.org/2001/XMLSchema-instance" xsi:noNamespaceSchemaLocation="http://sumo.dlr.de/xsd/tripinfo_file.xsd">
    <tripinfo id="flow1.1" depart="2.70" departLane="A3B3_0" departPos="4.10" departSpeed="0.00" departDelay="1.70" arrival="50.60" arrivalLane="D3E3_1" arrivalPos="79.20" arrivalSpeed="14.21" duration="47.90" routeLength="375.10" waitingTime="8.40" waitingCount="2" stopTime="0.00" timeLoss="21.65" rerouteNo="0" devices="tripinfo_flow1.1" vType="vtypeauto" speedFactor="1.03" vaporized=""/>
    <tripinfo id="flow1.0" depart="0.00" departLane="A3B3_0" departPos="4.10" departSpeed="0.00" departDelay="0.00" arrival="51.10" arrivalLane="D3E3_0" arrivalPos="79.20" arrivalSpeed="13.00" duration="51.10" routeLength="375.10" waitingTime="10.70" waitingCount="2" stopTime="0.00" timeLoss="22.24" rerouteNo="0" devices="tripinfo_flow1.0" vType="vtypeauto" speedFactor="0.94" vaporized=""/>
    <tripinfo id="flow1.3" depart="8.20" departLane="A3B3_0" departPos="4.10" departSpeed="0.00" departDelay="5.20" arrival="52.00" arrivalLane="D3E3_1" arrivalPos="79.20" arrivalSpeed="15.04" duration="43.80" routeLength="375.10" waitingTime="0.00" waitingCount="0" stopTime="0.00" timeLoss="19.05" rerouteNo="0" devices="tripinfo_flow1.3" vType="vtypeauto" speedFactor="1.09" vaporized=""/>
    <tripinfo id="flow1.2" depart="5.40" departLane="A3B3_0" departPos="4.10" departSpeed="0.00" departDelay="3.40" arrival="52.80" arrivalLane="D3E3_0" arrivalPos="79.20" arrivalSpeed="12.18" duration="47.40" routeLength="375.10" waitingTime="0.00" waitingCount="0" stopTime="0.00" timeLoss="16.91" rerouteNo="0" devices="tripinfo_flow1.2" vType="vtypeauto" speedFactor="0.89" vaporized=""/>
    <tripinfo id="flow1.6" depart="16.60" departLane="A3B3_0" departPos="4.10" departSpeed="0.00" departDelay="10.60" arrival="53.40" arrivalLane="D3E3_1" arrivalPos="79.20" arrivalSpeed="16.05" duration="36.80" routeLength="375.10" waitingTime="0.00" waitingCount="0" stopTime="0.00" timeLoss="13.49" rerouteNo="0" devices="tripinfo_flow1.6" vType="vtypeauto" speedFactor="1.16" vaporized=""/>
    <tripinfo id="flow1.4" depart="11.00" departLane="A3B3_0" departPos="4.10" departSpeed="0.00" departDelay="7.00" arrival="54.30" arrivalLane="D3E3_0" arrivalPos="79.20" arrivalSpeed="15.18" duration="43.30" routeLength="375.10" waitingTime="0.00" waitingCount="0" stopTime="0.00" timeLoss="19.21" rerouteNo="0" devices="tripinfo_flow1.4" vType="vtypeauto" speedFactor="1.12" vaporized=""/>
    <tripinfo id="flow1.7" depart="19.40" departLane="A3B3_0" departPos="4.10" departSpeed="0.00" departDelay="12.40" arrival="55.20" arrivalLane="D3E3_1" arrivalPos="79.20" arrivalSpeed="13.48" duration="35.80" routeLength="375.10" waitingTime="0.00" waitingCount="0" stopTime="0.00" timeLoss="8.08" rerouteNo="0" devices="tripinfo_flow1.7" vType="vtypeauto" speedFactor="0.97" vaporized=""/>
    <tripinfo id="flow1.5" depart="13.80" departLane="A3B3_0" departPos="4.10" departSpeed="0.00" departDelay="8.80" arrival="56.10" arrivalLane="D3E3_0" arrivalPos="79.20" arrivalSpeed="12.15" duration="42.30" routeLength="375.10" waitingTime="0.00" waitingCount="0" stopTime="0.00" timeLoss="11.53" rerouteNo="0" devices="tripinfo_flow1.5" vType="vtypeauto" speedFactor="0.88" vaporized=""/>
    <tripinfo id="flow1.8" depart="22.10" departLane="A3B3_0" departPos="4.10" departSpeed="0.00" departDelay="14.10" arrival="57.80" arrivalLane="D3E3_0" arrivalPos="79.20" arrivalSpeed="12.04" duration="35.70" routeLength="375.10" waitingTime="0.00" waitingCount="0" stopTime="0.00" timeLoss="4.69" rerouteNo="0" devices="tripinfo_flow1.8" vType="vtypeauto" speedFactor="0.87" vaporized=""/>
    <tripinfo id="flow2.0" depart="0.00" departLane="A0A1_0" departPos="4.10" departSpeed="0.00" departDelay="0.00" arrival="59.20" arrivalLane="C3D3_0" arrivalPos="79.20" arrivalSpeed="13.98" duration="59.20" routeLength="540.89" waitingTime="5.70" waitingCount="1" stopTime="0.00" timeLoss="17.14" rerouteNo="0" devices="tripinfo_flow2.0" vType="vtypeauto" speedFactor="1.01" vaporized=""/>
    <tripinfo id="flow1.9" depart="24.90" departLane="A3B3_0" departPos="4.10" departSpeed="0.00" departDelay="15.90" arrival="59.30" arrivalLane="D3E3_0" arrivalPos="79.20" arrivalSpeed="14.84" duration="34.40" routeLength="375.10" waitingTime="0.00" waitingCount="0" stopTime="0.00" timeLoss="10.48" rerouteNo="0" devices="tripinfo_flow1.9" vType="vtypeauto" speedFactor="1.13" vaporized=""/>
    <tripinfo id="flow1.10" depart="27.70" departLane="A3B3_0" departPos="4.10" departSpeed="0.00" departDelay="17.70" arrival="60.70" arrivalLane="D3E3_0" arrivalPos="79.20" arrivalSpeed="15.92" duration="33.00" routeLength="375.10" waitingTime="0.00" waitingCount="0" stopTime="0.00" timeLoss="9.52" rerouteNo="0" devices="tripinfo_flow1.10" vType="vtypeauto" speedFactor="1.15" vaporized=""/>
    <tripinfo id="flow1.12" depart="33.30" departLane="A3B3_0" departPos="4.10" departSpeed="0.00" departDelay="21.30" arrival="72.50" arrivalLane="D3E3_1" arrivalPos="79.20" arrivalSpeed="16.29" duration="39.20" routeLength="375.10" waitingTime="6.40" waitingCount="1" stopTime="0.00" timeLoss="16.28" rerouteNo="0" devices="tripinfo_flow1.12" vType="vtypeauto" speedFactor="1.18" vaporized=""/>
    <tripinfo id="flow1.11" depart="30.50" departLane="A3B3_0" departPos="4.10" departSpeed="0.00" departDelay="19.50" arrival="74.10" arrivalLane="D3E3_0" arrivalPos="79.20" arrivalSpeed="13.72" duration="43.60" routeLength="375.10" waitingTime="8.50" waitingCount="1" stopTime="0.00" timeLoss="16.37" rerouteNo="0" devices="tripinfo_flow1.11" vType="vtypeauto" speedFactor="0.99" vaporized=""/>
    <tripinfo id="flow1.14" depart="38.90" departLane="A3B3_0" departPos="4.10" departSpeed="0.00" departDelay="24.90" arrival="75.00" arrivalLane="D3E3_1" arrivalPos="79.20" arrivalSpeed="14.35" duration="36.10" routeLength="375.10" waitingTime="0.00" waitingCount="0" stopTime="0.00" timeLoss="10.08" rerouteNo="0" devices="tripinfo_flow1.14" vType="vtypeauto" speedFactor="1.04" vaporized=""/>
    <tripinfo id="flow1.13" depart="36.10" departLane="A3B3_0" departPos="4.10" departSpeed="0.00" departDelay="23.10" arrival="75.60" arrivalLane="D3E3_0" arrivalPos="79.20" arrivalSpeed="14.22" duration="39.50" routeLength="375.10" waitingTime="0.00" waitingCount="0" stopTime="0.00" timeLoss="13.25" rerouteNo="0" devices="tripinfo_flow1.13" vType="vtypeauto" speedFactor="1.03" vaporized=""/>
    <tripinfo id="flow1.15" depart="41.60" departLane="A3B3_0" departPos="4.10" departSpeed="0.00" departDelay="26.60" arrival="77.20" arrivalLane="D3E3_0" arrivalPos="79.20" arrivalSpeed="13.78" duration="35.60" routeLength="375.10" waitingTime="0.00" waitingCount="0" stopTime="0.00" timeLoss="8.51" rerouteNo="0" devices="tripinfo_flow1.15" vType="vtypeauto" speedFactor="1.00" vaporized=""/>
    <tripinfo id="flow1.17" depart="47.10" departLane="A3B3_0" departPos="4.10" departSpeed="0.00" departDelay="30.10" arrival="77.70" arrivalLane="D3E3_1" arrivalPos="79.20" arrivalSpeed="14.01" duration="30.60" routeLength="375.10" waitingTime="0.00" waitingCount="0" stopTime="0.00" timeLoss="3.98" rerouteNo="0" devices="tripinfo_flow1.17" vType="vtypeauto" speedFactor="1.02" vaporized=""/>
    <tripinfo id="flow2.1" depart="2.80" departLane="A0A1_0" departPos="4.10" departSpeed="0.00" departDelay="1.80" arrival="79.60" arrivalLane="C3D3_0" arrivalPos="79.20" arrivalSpeed="11.54" duration="76.80" routeLength="540.89" waitingTime="11.50" waitingCount="1" stopTime="0.00" timeLoss="25.72" rerouteNo="0" devices="tripinfo_flow2.1" vType="vtypeauto" speedFactor="0.83" vaporized=""/>
    <tripinfo id="flow1.16" depart="44.30" departLane="A3B3_0" departPos="4.10" departSpeed="0.00" departDelay="28.30" arrival="80.60" arrivalLane="D3E3_0" arrivalPos="79.20" arrivalSpeed="11.81" duration="36.30" routeLength="375.10" waitingTime="0.00" waitingCount="0" stopTime="0.00" timeLoss="4.51" rerouteNo="0" devices="tripinfo_flow1.16" vType="vtypeauto" speedFactor="0.85" vaporized=""/>
    <tripinfo id="flow2.2" depart="5.60" departLane="A0A1_0" departPos="4.10" departSpeed="0.00" departDelay="3.60" arrival="80.80" arrivalLane="C3D3_0" arrivalPos="79.20" arrivalSpeed="13.02" duration="75.20" routeLength="540.89" waitingTime="7.20" waitingCount="1" stopTime="0.00" timeLoss="31.12" rerouteNo="0" devices="tripinfo_flow2.2" vType="vtypeauto@flow2.2" speedFactor="1.01" vaporized=""/>
    <tripinfo id="flow2.3" depart="8.40" departLane="A0A1_0" departPos="4.10" departSpeed="0.00" departDelay="5.40" arrival="82.00" arrivalLane="C3D3_0" arrivalPos="79.20" arrivalSpeed="13.95" duration="73.60" routeLength="540.89" waitingTime="5.10" waitingCount="1" stopTime="0.00" timeLoss="32.70" rerouteNo="0" devices="tripinfo_flow2.3" vType="vtypeauto@flow2.3" speedFactor="1.01" vaporized=""/>
    <tripinfo id="flow2.4" depart="11.30" departLane="A0A1_0" departPos="4.10" departSpeed="0.00" departDelay="7.30" arrival="83.10" arrivalLane="C3D3_0" arrivalPos="79.20" arrivalSpeed="13.95" duration="71.80" routeLength="540.89" waitingTime="3.20" waitingCount="1" stopTime="0.00" timeLoss="29.64" rerouteNo="0" devices="tripinfo_flow2.4" vType="vtypeauto@flow2.4" speedFactor="1.01" vaporized=""/>
    <tripinfo id="flow2.5" depart="14.10" departLane="A0A1_0" departPos="4.10" departSpeed="0.00" departDelay="9.10" arrival="84.20" arrivalLane="C3D3_0" arrivalPos="79.20" arrivalSpeed="14.91" duration="70.10" routeLength="540.89" waitingTime="1.10" waitingCount="1" stopTime="0.00" timeLoss="29.27" rerouteNo="0" devices="tripinfo_flow2.5" vType="vtypeauto@flow2.5" speedFactor="2.15" vaporized=""/>
    <tripinfo id="flow2.9" depart="25.20" departLane="A0A1_0" departPos="4.10" departSpeed="0.00" departDelay="16.20" arrival="85.90" arrivalLane="C3D3_0" arrivalPos="79.20" arrivalSpeed="12.89" duration="60.70" routeLength="540.89" waitingTime="0.60" waitingCount="1" stopTime="0.00" timeLoss="15.04" rerouteNo="0" devices="tripinfo_flow2.9" vType="vtypeauto" speedFactor="0.93" vaporized=""/>
    <tripinfo id="flow2.10" depart="27.90" departLane="A0A1_0" departPos="4.10" departSpeed="0.00" departDelay="17.90" arrival="87.50" arrivalLane="C3D3_0" arrivalPos="79.20" arrivalSpeed="13.87" duration="59.60" routeLength="540.89" waitingTime="0.00" waitingCount="0" stopTime="0.00" timeLoss="17.33" rerouteNo="0" devices="tripinfo_flow2.10" vType="vtypeauto" speedFactor="1.01" vaporized=""/>
    <tripinfo id="flow2.11" depart="30.70" departLane="A0A1_0" departPos="4.10" departSpeed="0.00" departDelay="19.70" arrival="89.90" arrivalLane="C3D3_0" arrivalPos="79.20" arrivalSpeed="14.10" duration="59.20" routeLength="540.89" waitingTime="0.20" waitingCount="1" stopTime="0.00" timeLoss="17.58" rerouteNo="0" devices="tripinfo_flow2.11" vType="vtypeauto" speedFactor="1.02" vaporized=""/>
    <tripinfo id="flow2.6" depart="16.90" departLane="A0A1_0" departPos="4.10" departSpeed="0.00" departDelay="10.90" arrival="91.80" arrivalLane="C3D3_0" arrivalPos="79.20" arrivalSpeed="14.03" duration="74.90" routeLength="540.89" waitingTime="0.00" waitingCount="0" stopTime="0.00" timeLoss="33.15" rerouteNo="0" devices="tripinfo_flow2.6" vType="vtypeauto" speedFactor="1.02" vaporized=""/>
    <tripinfo id="flow2.12" depart="33.40" departLane="A0A1_0" departPos="4.10" departSpeed="0.00" departDelay="21.40" arrival="93.80" arrivalLane="C3D3_0" arrivalPos="79.20" arrivalSpeed="15.22" duration="60.40" routeLength="540.89" waitingTime="0.90" waitingCount="1" stopTime="0.00" timeLoss="21.82" rerouteNo="0" devices="tripinfo_flow2.12" vType="vtypeauto" speedFactor="1.10" vaporized=""/>
    <tripinfo id="flow2.7" depart="19.60" departLane="A0A1_0" departPos="4.10" departSpeed="0.00" departDelay="12.60" arrival="107.20" arrivalLane="C3D3_0" arrivalPos="79.20" arrivalSpeed="12.29" duration="87.60" routeLength="540.89" waitingTime="8.50" waitingCount="1" stopTime="0.00" timeLoss="39.77" rerouteNo="0" devices="tripinfo_flow2.7" vType="vtypeauto" speedFactor="0.89" vaporized=""/>
    <tripinfo id="flow2.8" depart="22.40" departLane="A0A1_0" departPos="4.10" departSpeed="0.00" departDelay="14.40" arrival="108.40" arrivalLane="C3D3_0" arrivalPos="79.20" arrivalSpeed="13.97" duration="86.00" routeLength="540.89" waitingTime="5.10" waitingCount="1" stopTime="0.00" timeLoss="41.05" rerouteNo="0" devices="tripinfo_flow2.8" vType="vtypeauto@flow2.8" speedFactor="1.01" vaporized=""/>
    <tripinfo id="flow2.13" depart="36.20" departLane="A0A1_0" departPos="4.10" departSpeed="0.00" departDelay="23.20" arrival="109.50" arrivalLane="C3D3_0" arrivalPos="79.20" arrivalSpeed="13.95" duration="73.30" routeLength="540.89" waitingTime="3.10" waitingCount="1" stopTime="0.00" timeLoss="29.94" rerouteNo="0" devices="tripinfo_flow2.13" vType="vtypeauto@flow2.13" speedFactor="1.01" vaporized=""/>
    <tripinfo id="flow2.14" depart="39.00" departLane="A0A1_0" departPos="4.10" departSpeed="0.00" departDelay="25.00" arrival="110.70" arrivalLane="C3D3_0" arrivalPos="79.20" arrivalSpeed="15.40" duration="71.70" routeLength="540.89" waitingTime="1.50" waitingCount="1" stopTime="0.00" timeLoss="34.31" rerouteNo="0" devices="tripinfo_flow2.14" vType="vtypeauto@flow2.14" speedFactor="2.15" vaporized=""/>
    <tripinfo id="flow2.15" depart="41.80" departLane="A0A1_0" departPos="4.10" departSpeed="0.00" departDelay="26.80" arrival="113.00" arrivalLane="C3D3_0" arrivalPos="79.20" arrivalSpeed="12.44" duration="71.20" routeLength="540.89" waitingTime="0.00" waitingCount="0" stopTime="0.00" timeLoss="23.92" rerouteNo="0" devices="tripinfo_flow2.15" vType="vtypeauto" speedFactor="0.90" vaporized=""/>
    <tripinfo id="flow0.0" depart="0.00" departLane="B4B3_0" departPos="4.10" departSpeed="0.00" departDelay="0.00" arrival="114.10" arrivalLane="B3A3_1" arrivalPos="79.20" arrivalSpeed="14.70" duration="114.10" routeLength="570.75" waitingTime="58.00" waitingCount="2" stopTime="0.00" timeLoss="73.30" rerouteNo="0" devices="tripinfo_flow0.0" vType="vtypeauto" speedFactor="1.06" vaporized=""/>
    <tripinfo id="flow2.16" depart="44.60" departLane="A0A1_0" departPos="4.10" departSpeed="0.00" departDelay="28.60" arrival="115.70" arrivalLane="C3D3_0" arrivalPos="79.20" arrivalSpeed="11.85" duration="71.10" routeLength="540.89" waitingTime="0.00" waitingCount="0" stopTime="0.00" timeLoss="21.34" rerouteNo="0" devices="tripinfo_flow2.16" vType="vtypeauto" speedFactor="0.85" vaporized=""/>
    <tripinfo id="flow2.17" depart="47.50" departLane="A0A1_0" departPos="4.10" departSpeed="0.00" departDelay="30.50" arrival="117.20" arrivalLane="C3D3_0" arrivalPos="79.20" arrivalSpeed="14.82" duration="69.70" routeLength="540.89" waitingTime="0.00" waitingCount="0" stopTime="0.00" timeLoss="30.90" rerouteNo="0" devices="tripinfo_flow2.17" vType="vtypeauto" speedFactor="1.10" vaporized=""/>
    <tripinfo id="flow0.8" depart="14.40" departLane="B4B3_0" departPos="4.10" departSpeed="0.00" departDelay="6.40" arrival="119.20" arrivalLane="B3A3_1" arrivalPos="79.20" arrivalSpeed="11.44" duration="104.80" routeLength="570.75" waitingTime="36.40" waitingCount="1" stopTime="0.00" timeLoss="52.43" rerouteNo="0" devices="tripinfo_flow0.8" vType="vtypeauto" speedFactor="0.83" vaporized=""/>
    <tripinfo id="flow0.1" depart="2.80" departLane="B4B3_0" departPos="4.10" departSpeed="0.00" departDelay="1.80" arrival="120.70" arrivalLane="B3A3_1" arrivalPos="79.20" arrivalSpeed="13.98" duration="117.90" routeLength="570.75" waitingTime="45.80" waitingCount="1" stopTime="0.00" timeLoss="77.99" rerouteNo="0" devices="tripinfo_flow0.1" vType="vtypeauto" speedFactor="1.08" vaporized=""/>
    <tripinfo id="flow1.23" depart="63.90" departLane="A3B3_0" departPos="4.10" departSpeed="0.00" departDelay="40.90" arrival="140.40" arrivalLane="D3E3_0" arrivalPos="79.20" arrivalSpeed="14.09" duration="76.50" routeLength="375.10" waitingTime="25.30" waitingCount="2" stopTime="0.00" timeLoss="50.05" rerouteNo="0" devices="tripinfo_flow1.23" vType="vtypeauto" speedFactor="1.02" vaporized=""/>
    <tripinfo id="flow1.19" depart="52.70" departLane="A3B3_0" departPos="4.10" departSpeed="0.00" departDelay="33.70" arrival="140.60" arrivalLane="D3E3_1" arrivalPos="79.20" arrivalSpeed="14.11" duration="87.90" routeLength="375.10" waitingTime="40.40" waitingCount="4" stopTime="0.00" timeLoss="61.49" rerouteNo="0" devices="tripinfo_flow1.19" vType="vtypeauto" speedFactor="1.02" vaporized=""/>
    <tripinfo id="flow1.18" depart="49.90" departLane="A3B3_0" departPos="4.10" departSpeed="0.00" departDelay="31.90" arrival="141.90" arrivalLane="D3E3_0" arrivalPos="79.20" arrivalSpeed="13.96" duration="92.00" routeLength="375.10" waitingTime="45.20" waitingCount="3" stopTime="0.00" timeLoss="64.94" rerouteNo="0" devices="tripinfo_flow1.18" vType="vtypeauto@flow1.18" speedFactor="1.01" vaporized=""/>
    <tripinfo id="flow1.21" depart="58.30" departLane="A3B3_0" departPos="4.10" departSpeed="0.00" departDelay="37.30" arrival="142.40" arrivalLane="D3E3_1" arrivalPos="79.20" arrivalSpeed="12.94" duration="84.10" routeLength="375.10" waitingTime="26.20" waitingCount="2" stopTime="0.00" timeLoss="55.27" rerouteNo="0" devices="tripinfo_flow1.21" vType="vtypeauto" speedFactor="0.94" vaporized=""/>
    <tripinfo id="flow1.20" depart="55.50" departLane="A3B3_0" departPos="4.10" departSpeed="0.00" departDelay="35.50" arrival="143.10" arrivalLane="D3E3_0" arrivalPos="79.20" arrivalSpeed="13.89" duration="87.60" routeLength="375.10" waitingTime="35.50" waitingCount="2" stopTime="0.00" timeLoss="61.27" rerouteNo="0" devices="tripinfo_flow1.20" vType="vtypeauto@flow1.20" speedFactor="1.01" vaporized=""/>
    <tripinfo id="flow1.25" depart="69.50" departLane="A3B3_0" departPos="4.10" departSpeed="0.00" departDelay="44.50" arrival="143.90" arrivalLane="D3E3_1" arrivalPos="79.20" arrivalSpeed="14.33" duration="74.40" routeLength="375.10" waitingTime="15.20" waitingCount="1" stopTime="0.00" timeLoss="48.20" rerouteNo="0" devices="tripinfo_flow1.25" vType="vtypeauto" speedFactor="1.03" vaporized=""/>
    <tripinfo id="flow1.22" depart="61.10" departLane="A3B3_0" departPos="4.10" departSpeed="0.00" departDelay="39.10" arrival="144.40" arrivalLane="D3E3_0" arrivalPos="79.20" arrivalSpeed="13.97" duration="83.30" routeLength="375.10" waitingTime="30.40" waitingCount="2" stopTime="0.00" timeLoss="56.01" rerouteNo="0" devices="tripinfo_flow1.22" vType="vtypeauto@flow1.22" speedFactor="1.01" vaporized=""/>
    <tripinfo id="flow1.27" depart="75.10" departLane="A3B3_0" departPos="4.10" departSpeed="0.00" departDelay="48.10" arrival="145.40" arrivalLane="D3E3_1" arrivalPos="79.20" arrivalSpeed="14.03" duration="70.30" routeLength="375.10" waitingTime="11.00" waitingCount="1" stopTime="0.00" timeLoss="43.70" rerouteNo="0" devices="tripinfo_flow1.27" vType="vtypeauto" speedFactor="1.02" vaporized=""/>
    <tripinfo id="flow1.24" depart="66.70" departLane="A3B3_0" departPos="4.10" departSpeed="0.00" departDelay="42.70" arrival="145.60" arrivalLane="D3E3_0" arrivalPos="79.20" arrivalSpeed="13.97" duration="78.90" routeLength="375.10" waitingTime="25.70" waitingCount="2" stopTime="0.00" timeLoss="52.23" rerouteNo="0" devices="tripinfo_flow1.24" vType="vtypeauto@flow1.24" speedFactor="1.01" vaporized=""/>
    <tripinfo id="flow1.26" depart="72.30" departLane="A3B3_0" departPos="4.10" departSpeed="0.00" departDelay="46.30" arrival="146.80" arrivalLane="D3E3_0" arrivalPos="79.20" arrivalSpeed="13.88" duration="74.50" routeLength="375.10" waitingTime="20.70" waitingCount="2" stopTime="0.00" timeLoss="47.92" rerouteNo="0" devices="tripinfo_flow1.26" vType="vtypeauto@flow1.26" speedFactor="1.01" vaporized=""/>
    <tripinfo id="flow1.29" depart="80.70" departLane="A3B3_0" departPos="4.10" departSpeed="0.00" departDelay="51.70" arrival="146.90" arrivalLane="D3E3_1" arrivalPos="79.20" arrivalSpeed="13.87" duration="66.20" routeLength="375.10" waitingTime="6.90" waitingCount="1" stopTime="0.00" timeLoss="39.37" rerouteNo="0" devices="tripinfo_flow1.29" vType="vtypeauto" speedFactor="1.01" vaporized=""/>
    <tripinfo id="flow1.28" depart="77.90" departLane="A3B3_0" departPos="4.10" departSpeed="0.00" departDelay="49.90" arrival="148.10" arrivalLane="D3E3_0" arrivalPos="79.20" arrivalSpeed="13.96" duration="70.20" routeLength="375.10" waitingTime="16.10" waitingCount="2" stopTime="0.00" timeLoss="43.25" rerouteNo="0" devices="tripinfo_flow1.28" vType="vtypeauto@flow1.28" speedFactor="1.01" vaporized=""/>
    <tripinfo id="flow1.31" depart="85.80" departLane="A3B3_0" departPos="4.10" departSpeed="0.00" departDelay="54.80" arrival="148.40" arrivalLane="D3E3_1" arrivalPos="79.20" arrivalSpeed="15.14" duration="62.60" routeLength="375.10" waitingTime="3.60" waitingCount="1" stopTime="0.00" timeLoss="37.78" rerouteNo="0" devices="tripinfo_flow1.31" vType="vtypeauto" speedFactor="1.09" vaporized=""/>
    <tripinfo id="flow1.30" depart="83.00" departLane="A3B3_0" departPos="4.10" departSpeed="0.00" departDelay="53.00" arrival="149.30" arrivalLane="D3E3_0" arrivalPos="79.20" arrivalSpeed="13.97" duration="66.30" routeLength="375.10" waitingTime="12.00" waitingCount="2" stopTime="0.00" timeLoss="39.23" rerouteNo="0" devices="tripinfo_flow1.30" vType="vtypeauto@flow1.30" speedFactor="1.01" vaporized=""/>
    <tripinfo id="flow1.33" depart="90.10" departLane="A3B3_0" departPos="4.10" departSpeed="0.00" departDelay="57.10" arrival="149.90" arrivalLane="D3E3_1" arrivalPos="79.20" arrivalSpeed="14.69" duration="59.80" routeLength="375.10" waitingTime="0.00" waitingCount="0" stopTime="0.00" timeLoss="34.36" rerouteNo="0" devices="tripinfo_flow1.33" vType="vtypeauto" speedFactor="1.06" vaporized=""/>
    <tripinfo id="flow2.18" depart="50.20" departLane="A0A1_0" departPos="4.10" departSpeed="0.00" departDelay="32.20" arrival="150.90" arrivalLane="C3D3_0" arrivalPos="79.20" arrivalSpeed="12.48" duration="100.70" routeLength="540.89" waitingTime="35.20" waitingCount="2" stopTime="0.00" timeLoss="53.39" rerouteNo="0" devices="tripinfo_flow2.18" vType="vtypeauto" speedFactor="0.90" vaporized=""/>
    <tripinfo id="flow1.32" depart="87.30" departLane="A3B3_0" departPos="4.10" departSpeed="0.00" departDelay="55.30" arrival="151.10" arrivalLane="D3E3_0" arrivalPos="79.20" arrivalSpeed="12.54" duration="63.80" routeLength="375.10" waitingTime="6.40" waitingCount="2" stopTime="0.00" timeLoss="34.00" rerouteNo="0" devices="tripinfo_flow1.32" vType="vtypeauto" speedFactor="0.91" vaporized=""/>
    <tripinfo id="flow1.35" depart="94.10" departLane="A3B3_0" departPos="4.10" departSpeed="0.00" departDelay="59.10" arrival="151.40" arrivalLane="D3E3_1" arrivalPos="79.20" arrivalSpeed="13.98" duration="57.30" routeLength="375.10" waitingTime="0.00" waitingCount="0" stopTime="0.00" timeLoss="30.66" rerouteNo="0" devices="tripinfo_flow1.35" vType="vtypeauto" speedFactor="1.01" vaporized=""/>
    <tripinfo id="flow2.19" depart="53.00" departLane="A0A1_0" departPos="4.10" departSpeed="0.00" departDelay="34.00" arrival="152.10" arrivalLane="C3D3_0" arrivalPos="79.20" arrivalSpeed="13.57" duration="99.10" routeLength="540.89" waitingTime="27.00" waitingCount="2" stopTime="0.00" timeLoss="56.16" rerouteNo="0" devices="tripinfo_flow2.19" vType="vtypeauto@flow2.19" speedFactor="1.01" vaporized=""/>
    <tripinfo id="flow1.34" depart="90.80" departLane="A3B3_0" departPos="4.10" departSpeed="0.00" departDelay="56.80" arrival="152.70" arrivalLane="D3E3_0" arrivalPos="79.20" arrivalSpeed="13.15" duration="61.90" routeLength="375.10" waitingTime="4.90" waitingCount="1" stopTime="0.00" timeLoss="33.50" rerouteNo="0" devices="tripinfo_flow1.34" vType="vtypeauto" speedFactor="0.95" vaporized=""/>
    <tripinfo id="flow2.20" depart="55.80" departLane="A0A1_0" departPos="4.10" departSpeed="0.00" departDelay="35.80" arrival="153.20" arrivalLane="C3D3_0" arrivalPos="79.20" arrivalSpeed="13.99" duration="97.40" routeLength="540.89" waitingTime="26.70" waitingCount="2" stopTime="0.00" timeLoss="56.10" rerouteNo="0" devices="tripinfo_flow2.20" vType="vtypeauto@flow2.20" speedFactor="1.01" vaporized=""/>
    <tripinfo id="flow1.36" depart="94.50" departLane="A3B3_0" departPos="4.10" departSpeed="0.00" departDelay="58.50" arrival="153.20" arrivalLane="D3E3_1" arrivalPos="79.20" arrivalSpeed="13.22" duration="58.70" routeLength="375.10" waitingTime="3.10" waitingCount="1" stopTime="0.00" timeLoss="30.49" rerouteNo="0" devices="tripinfo_flow1.36" vType="vtypeauto" speedFactor="0.96" vaporized=""/>
    <tripinfo id="flow1.39" depart="112.00" departLane="A3B3_0" departPos="4.10" departSpeed="0.00" departDelay="73.00" arrival="154.20" arrivalLane="D3E3_0" arrivalPos="79.20" arrivalSpeed="13.70" duration="42.20" routeLength="375.10" waitingTime="0.00" waitingCount="0" stopTime="0.00" timeLoss="14.94" rerouteNo="0" devices="tripinfo_flow1.39" vType="vtypeauto" speedFactor="0.99" vaporized=""/>
    <tripinfo id="flow2.21" depart="58.60" departLane="A0A1_0" departPos="4.10" departSpeed="0.00" departDelay="37.60" arrival="154.30" arrivalLane="C3D3_0" arrivalPos="79.20" arrivalSpeed="13.91" duration="95.70" routeLength="540.89" waitingTime="21.70" waitingCount="2" stopTime="0.00" timeLoss="49.38" rerouteNo="0" devices="tripinfo_flow2.21" vType="vtypeauto@flow2.21" speedFactor="1.01" vaporized=""/>
    <tripinfo id="flow1.37" depart="107.30" departLane="A3B3_0" departPos="4.10" departSpeed="0.00" departDelay="70.30" arrival="154.60" arrivalLane="D3E3_1" arrivalPos="79.20" arrivalSpeed="15.17" duration="47.30" routeLength="375.10" waitingTime="0.00" waitingCount="0" stopTime="0.00" timeLoss="22.71" rerouteNo="0" devices="tripinfo_flow1.37" vType="vtypeauto" speedFactor="1.10" vaporized=""/>
    <tripinfo id="flow2.22" depart="61.30" departLane="A0A1_0" departPos="4.10" departSpeed="0.00" departDelay="39.30" arrival="155.40" arrivalLane="C3D3_0" arrivalPos="79.20" arrivalSpeed="13.89" duration="94.10" routeLength="540.89" waitingTime="14.80" waitingCount="2" stopTime="0.00" timeLoss="53.56" rerouteNo="0" devices="tripinfo_flow2.22" vType="vtypeauto@flow2.22" speedFactor="1.01" vaporized=""/>
    <tripinfo id="flow1.40" depart="114.80" departLane="A3B3_0" departPos="4.10" departSpeed="0.00" departDelay="74.80" arrival="155.70" arrivalLane="D3E3_0" arrivalPos="79.20" arrivalSpeed="15.32" duration="40.90" routeLength="375.10" waitingTime="0.00" waitingCount="0" stopTime="0.00" timeLoss="16.34" rerouteNo="0" devices="tripinfo_flow1.40" vType="vtypeauto" speedFactor="1.10" vaporized=""/>
    <tripinfo id="flow2.23" depart="64.10" departLane="A0A1_0" departPos="4.10" departSpeed="0.00" departDelay="41.10" arrival="156.50" arrivalLane="C3D3_0" arrivalPos="79.20" arrivalSpeed="14.89" duration="92.40" routeLength="540.89" waitingTime="11.00" waitingCount="1" stopTime="0.00" timeLoss="52.68" rerouteNo="0" devices="tripinfo_flow2.23" vType="vtypeauto@flow2.23" speedFactor="2.15" vaporized=""/>
    <tripinfo id="flow1.38" depart="110.50" departLane="A3B3_0" departPos="4.10" departSpeed="0.00" departDelay="72.50" arrival="156.50" arrivalLane="D3E3_1" arrivalPos="79.20" arrivalSpeed="12.68" duration="46.00" routeLength="375.10" waitingTime="0.30" waitingCount="1" stopTime="0.00" timeLoss="16.67" rerouteNo="0" devices="tripinfo_flow1.38" vType="vtypeauto" speedFactor="0.92" vaporized=""/>
    <tripinfo id="flow1.41" depart="117.60" departLane="A3B3_0" departPos="4.10" departSpeed="0.00" departDelay="76.60" arrival="157.10" arrivalLane="D3E3_0" arrivalPos="79.20" arrivalSpeed="14.69" duration="39.50" routeLength="375.10" waitingTime="0.00" waitingCount="0" stopTime="0.00" timeLoss="14.04" rerouteNo="0" devices="tripinfo_flow1.41" vType="vtypeauto" speedFactor="1.06" vaporized=""/>
    <tripinfo id="flow2.27" depart="75.30" departLane="A0A1_0" departPos="4.10" departSpeed="0.00" departDelay="48.30" arrival="158.00" arrivalLane="C3D3_0" arrivalPos="79.20" arrivalSpeed="13.35" duration="82.70" routeLength="540.89" waitingTime="5.00" waitingCount="6" stopTime="0.00" timeLoss="38.73" rerouteNo="0" devices="tripinfo_flow2.27" vType="vtypeauto" speedFactor="0.97" vaporized=""/>
    <tripinfo id="flow2.28" depart="78.00" departLane="A0A1_0" departPos="4.10" departSpeed="0.00" departDelay="50.00" arrival="159.70" arrivalLane="C3D3_0" arrivalPos="79.20" arrivalSpeed="13.85" duration="81.70" routeLength="540.89" waitingTime="3.00" waitingCount="2" stopTime="0.00" timeLoss="39.14" rerouteNo="0" devices="tripinfo_flow2.28" vType="vtypeauto" speedFactor="1.00" vaporized=""/>
    <tripinfo id="flow2.24" depart="66.90" departLane="A0A1_0" departPos="4.10" departSpeed="0.00" departDelay="42.90" arrival="162.20" arrivalLane="C3D3_0" arrivalPos="79.20" arrivalSpeed="13.26" duration="95.30" routeLength="540.89" waitingTime="10.10" waitingCount="2" stopTime="0.00" timeLoss="50.77" rerouteNo="0" devices="tripinfo_flow2.24" vType="vtypeauto" speedFactor="0.96" vaporized=""/>