<?xml version="1.0" encoding="UTF-8"?>

<!-- generated on 2024-10-30 19:09:51 by Eclipse SUMO sumo Version 1.20.0
<configuration xmlns:xsi="http://www.w3.org/2001/XMLSchema-instance" xsi:noNamespaceSchemaLocation="http://sumo.dlr.de/xsd/sumoConfiguration.xsd">

    <input>
        <net-file value="./sim_cfg_grid_2_lanes/grid.net.xml"/>
        <route-files value="./sim_cfg_grid_2_lanes/10x0.5.rou.xml"/>
    </input>

    <output>
        <tripinfo-output value="./sim_cfg_grid_2_lanes/tripinfo-platooning_0.571.xml"/>
    </output>

    <time>
        <begin value="0"/>
        <end value="500"/>
        <step-length value="0.1"/>
    </time>

    <traci_server>
        <remote-port value="50099"/>
    </traci_server>

    <gui_only>
        <gui-settings-file value="./sim_cfg_grid_2_lanes/gui_settings.xml"/>
    </gui_only>

</configuration>
-->

<tripinfos xmlns:xsi="http://www.w3.org/2001/XMLSchema-instance" xsi:noNamespaceSchemaLocation="http://sumo.dlr.de/xsd/tripinfo_file.xsd">
    <tripinfo id="flow9.1" depart="2.80" departLane="A2B2_0" departPos="4.10" departSpeed="0.00" departDelay="0.80" arrival="41.50" arrivalLane="D2E2_1" arrivalPos="79.20" arrivalSpeed="3.97" duration="38.70" routeLength="375.10" waitingTime="3.90" waitingCount="1" stopTime="0.00" timeLoss="15.37" rerouteNo="0" devices="tripinfo_flow9.1" vType="vtypeauto" speedFactor="1.16" vaporized=""/>
    <tripinfo id="flow9.0" depart="0.00" departLane="A2B2_0" departPos="4.10" departSpeed="0.00" departDelay="0.00" arrival="43.80" arrivalLane="D2E2_0" arrivalPos="79.20" arrivalSpeed="11.82" duration="43.80" routeLength="375.10" waitingTime="5.50" waitingCount="1" stopTime="0.00" timeLoss="12.22" rerouteNo="0" devices="tripinfo_flow9.0" vType="vtypeauto" speedFactor="0.86" vaporized=""/>
    <tripinfo id="flow9.2" depart="5.60" departLane="A2B2_0" departPos="4.10" departSpeed="0.00" departDelay="1.60" arrival="45.30" arrivalLane="D2E2_0" arrivalPos="79.20" arrivalSpeed="12.91" duration="39.70" routeLength="375.10" waitingTime="0.00" waitingCount="0" stopTime="0.00" timeLoss="10.71" rerouteNo="0" devices="tripinfo_flow9.2" vType="vtypeauto" speedFactor="0.93" vaporized=""/>
    <tripinfo id="flow9.3" depart="8.40" departLane="A2B2_0" departPos="4.10" departSpeed="0.00" departDelay="2.40" arrival="45.90" arrivalLane="D2E2_1" arrivalPos="79.20" arrivalSpeed="2.36" duration="37.50" routeLength="375.10" waitingTime="0.00" waitingCount="0" stopTime="0.00" timeLoss="7.52" rerouteNo="0" devices="tripinfo_flow9.3" vType="vtypeauto" speedFactor="0.90" vaporized=""/>
    <tripinfo id="flow9.4" depart="11.20" departLane="A2B2_0" departPos="4.10" departSpeed="0.00" departDelay="3.20" arrival="47.20" arrivalLane="D2E2_0" arrivalPos="79.20" arrivalSpeed="11.77" duration="36.00" routeLength="375.10" waitingTime="0.00" waitingCount="0" stopTime="0.00" timeLoss="4.20" rerouteNo="0" devices="tripinfo_flow9.4" vType="vtypeauto" speedFactor="0.85" vaporized=""/>
    <tripinfo id="flow9.6" depart="16.80" departLane="A2B2_0" departPos="4.10" departSpeed="0.00" departDelay="4.80" arrival="48.70" arrivalLane="D2E2_0" arrivalPos="79.20" arrivalSpeed="14.08" duration="31.90" routeLength="375.10" waitingTime="0.00" waitingCount="0" stopTime="0.00" timeLoss="5.44" rerouteNo="0" devices="tripinfo_flow9.6" vType="vtypeauto" speedFactor="1.02" vaporized=""/>
    <tripinfo id="flow9.5" depart="14.00" departLane="A2B2_0" departPos="4.10" departSpeed="0.00" departDelay="4.00" arrival="49.60" arrivalLane="D2E2_1" arrivalPos="79.20" arrivalSpeed="0.92" duration="35.60" routeLength="375.10" waitingTime="0.00" waitingCount="0" stopTime="0.00" timeLoss="7.75" rerouteNo="0" devices="tripinfo_flow9.5" vType="vtypeauto" speedFactor="0.97" vaporized=""/>
    <tripinfo id="flow9.7" depart="19.60" departLane="A2B2_0" departPos="4.10" departSpeed="0.00" departDelay="5.60" arrival="50.10" arrivalLane="D2E2_0" arrivalPos="79.20" arrivalSpeed="15.09" duration="30.50" routeLength="375.10" waitingTime="0.00" waitingCount="0" stopTime="0.00" timeLoss="5.64" rerouteNo="0" devices="tripinfo_flow9.7" vType="vtypeauto" speedFactor="1.09" vaporized=""/>
    <tripinfo id="flow9.8" depart="22.30" departLane="A2B2_0" departPos="4.10" departSpeed="0.00" departDelay="6.30" arrival="52.60" arrivalLane="D2E2_0" arrivalPos="79.20" arrivalSpeed="14.12" duration="30.30" routeLength="375.10" waitingTime="0.00" waitingCount="0" stopTime="0.00" timeLoss="3.80" rerouteNo="0" devices="tripinfo_flow9.8" vType="vtypeauto" speedFactor="1.02" vaporized=""/>
    <tripinfo id="flow9.9" depart="25.10" departLane="A2B2_0" departPos="4.10" departSpeed="0.00" departDelay="7.10" arrival="54.10" arrivalLane="D2E2_0" arrivalPos="79.20" arrivalSpeed="15.13" duration="29.00" routeLength="375.10" waitingTime="0.00" waitingCount="0" stopTime="0.00" timeLoss="4.31" rerouteNo="0" devices="tripinfo_flow9.9" vType="vtypeauto" speedFactor="1.10" vaporized=""/>
    <tripinfo id="flow1.1" depart="2.70" departLane="A3B3_0" departPos="4.10" departSpeed="0.00" departDelay="0.70" arrival="79.50" arrivalLane="D3E3_1" arrivalPos="79.20" arrivalSpeed="14.20" duration="76.80" routeLength="375.10" waitingTime="37.40" waitingCount="2" stopTime="0.00" timeLoss="50.49" rerouteNo="0" devices="tripinfo_flow1.1" vType="vtypeauto" speedFactor="1.03" vaporized=""/>
    <tripinfo id="flow1.0" depart="0.00" departLane="A3B3_0" departPos="4.10" departSpeed="0.00" departDelay="0.00" arrival="80.80" arrivalLane="D3E3_0" arrivalPos="79.20" arrivalSpeed="12.62" duration="80.80" routeLength="375.10" waitingTime="39.70" waitingCount="2" stopTime="0.00" timeLoss="51.98" rerouteNo="0" devices="tripinfo_flow1.0" vType="vtypeauto" speedFactor="0.94" vaporized=""/>
    <tripinfo id="flow1.3" depart="8.20" departLane="A3B3_0" departPos="4.10" departSpeed="0.00" departDelay="2.20" arrival="81.00" arrivalLane="D3E3_1" arrivalPos="79.20" arrivalSpeed="15.92" duration="72.80" routeLength="375.10" waitingTime="29.10" waitingCount="1" stopTime="0.00" timeLoss="49.32" rerouteNo="0" devices="tripinfo_flow1.3" vType="vtypeauto" speedFactor="1.15" vaporized=""/>
    <tripinfo id="flow1.2" depart="5.40" departLane="A3B3_0" departPos="4.10" departSpeed="0.00" departDelay="1.40" arrival="81.90" arrivalLane="D3E3_0" arrivalPos="79.20" arrivalSpeed="12.43" duration="76.50" routeLength="375.10" waitingTime="29.00" waitingCount="1" stopTime="0.00" timeLoss="49.71" rerouteNo="0" devices="tripinfo_flow1.2" vType="vtypeauto@flow1.2" speedFactor="1.01" vaporized=""/>
    <tripinfo id="flow6.1" depart="5.60" departLane="D4D3_0" departPos="4.10" departSpeed="0.00" departDelay="3.60" arrival="82.30" arrivalLane="D1D0_0" arrivalPos="79.20" arrivalSpeed="12.20" duration="76.70" routeLength="375.10" waitingTime="31.30" waitingCount="2" stopTime="0.00" timeLoss="45.95" rerouteNo="0" devices="tripinfo_flow6.1" vType="vtypeauto" speedFactor="0.88" vaporized=""/>
    <tripinfo id="flow1.5" depart="13.80" departLane="A3B3_0" departPos="4.10" departSpeed="0.00" departDelay="3.80" arrival="82.30" arrivalLane="D3E3_1" arrivalPos="79.20" arrivalSpeed="16.21" duration="68.50" routeLength="375.10" waitingTime="27.30" waitingCount="1" stopTime="0.00" timeLoss="45.39" rerouteNo="0" devices="tripinfo_flow1.5" vType="vtypeauto" speedFactor="1.17" vaporized=""/>
    <tripinfo id="flow1.4" depart="11.00" departLane="A3B3_0" departPos="4.10" departSpeed="0.00" departDelay="3.00" arrival="83.00" arrivalLane="D3E3_0" arrivalPos="79.20" arrivalSpeed="12.51" duration="72.00" routeLength="375.10" waitingTime="26.80" waitingCount="1" stopTime="0.00" timeLoss="44.23" rerouteNo="0" devices="tripinfo_flow1.4" vType="vtypeauto@flow1.4" speedFactor="1.01" vaporized=""/>
    <tripinfo id="flow6.2" depart="11.20" departLane="D4D3_0" departPos="4.10" departSpeed="0.00" departDelay="7.20" arrival="83.50" arrivalLane="D1D0_1" arrivalPos="79.20" arrivalSpeed="12.73" duration="72.30" routeLength="375.10" waitingTime="22.70" waitingCount="2" stopTime="0.00" timeLoss="42.79" rerouteNo="0" devices="tripinfo_flow6.2" vType="vtypeauto" speedFactor="0.92" vaporized=""/>
    <tripinfo id="flow6.0" depart="0.00" departLane="D4D3_0" departPos="4.10" departSpeed="0.00" departDelay="0.00" arrival="83.80" arrivalLane="D1D0_0" arrivalPos="79.20" arrivalSpeed="14.52" duration="83.80" routeLength="375.10" waitingTime="35.00" waitingCount="3" stopTime="0.00" timeLoss="57.96" rerouteNo="0" devices="tripinfo_flow6.0" vType="vtypeauto" speedFactor="1.05" vaporized=""/>
    <tripinfo id="flow1.6" depart="16.60" departLane="A3B3_0" departPos="4.10" departSpeed="0.00" departDelay="4.60" arrival="83.80" arrivalLane="D3E3_1" arrivalPos="79.20" arrivalSpeed="15.46" duration="67.20" routeLength="375.10" waitingTime="25.90" waitingCount="1" stopTime="0.00" timeLoss="43.01" rerouteNo="0" devices="tripinfo_flow1.6" vType="vtypeauto" speedFactor="1.12" vaporized=""/>
    <tripinfo id="flow1.7" depart="19.40" departLane="A3B3_0" departPos="4.10" departSpeed="0.00" departDelay="5.40" arrival="84.20" arrivalLane="D3E3_0" arrivalPos="79.20" arrivalSpeed="13.35" duration="64.80" routeLength="375.10" waitingTime="19.40" waitingCount="2" stopTime="0.00" timeLoss="37.28" rerouteNo="0" devices="tripinfo_flow1.7" vType="vtypeauto@flow1.7" speedFactor="1.01" vaporized=""/>
    <tripinfo id="flow6.3" depart="16.80" departLane="D4D3_0" departPos="4.10" departSpeed="0.00" departDelay="10.80" arrival="85.00" arrivalLane="D1D0_1" arrivalPos="79.20" arrivalSpeed="13.50" duration="68.20" routeLength="375.10" waitingTime="16.70" waitingCount="2" stopTime="0.00" timeLoss="40.43" rerouteNo="0" devices="tripinfo_flow6.3" vType="vtypeauto" speedFactor="0.97" vaporized=""/>
    <tripinfo id="flow1.9" depart="25.00" departLane="A3B3_0" departPos="4.10" departSpeed="0.00" departDelay="7.00" arrival="85.30" arrivalLane="D3E3_0" arrivalPos="79.20" arrivalSpeed="13.82" duration="60.30" routeLength="375.10" waitingTime="8.80" waitingCount="1" stopTime="0.00" timeLoss="31.18" rerouteNo="0" devices="tripinfo_flow1.9" vType="vtypeauto@flow1.9" speedFactor="1.01" vaporized=""/>
    <tripinfo id="flow1.8" depart="22.20" departLane="A3B3_0" departPos="4.10" departSpeed="0.00" departDelay="6.20" arrival="85.60" arrivalLane="D3E3_1" arrivalPos="79.20" arrivalSpeed="13.81" duration="63.40" routeLength="375.10" waitingTime="18.20" waitingCount="2" stopTime="0.00" timeLoss="36.26" rerouteNo="0" devices="tripinfo_flow1.8" vType="vtypeauto" speedFactor="1.00" vaporized=""/>
    <tripinfo id="flow1.11" depart="30.60" departLane="A3B3_0" departPos="4.10" departSpeed="0.00" departDelay="8.60" arrival="86.40" arrivalLane="D3E3_0" arrivalPos="79.20" arrivalSpeed="13.91" duration="55.80" routeLength="375.10" waitingTime="7.00" waitingCount="1" stopTime="0.00" timeLoss="26.19" rerouteNo="0" devices="tripinfo_flow1.11" vType="vtypeauto@flow1.11" speedFactor="1.01" vaporized=""/>
    <tripinfo id="flow6.4" depart="22.40" departLane="D4D3_0" departPos="4.10" departSpeed="0.00" departDelay="14.40" arrival="86.50" arrivalLane="D1D0_1" arrivalPos="79.20" arrivalSpeed="13.75" duration="64.10" routeLength="375.10" waitingTime="11.40" waitingCount="1" stopTime="0.00" timeLoss="37.01" rerouteNo="0" devices="tripinfo_flow6.4" vType="vtypeauto" speedFactor="1.00" vaporized=""/>
    <tripinfo id="flow1.10" depart="27.80" departLane="A3B3_0" departPos="4.10" departSpeed="0.00" departDelay="7.80" arrival="87.20" arrivalLane="D3E3_1" arrivalPos="79.20" arrivalSpeed="13.21" duration="59.40" routeLength="375.10" waitingTime="11.40" waitingCount="1" stopTime="0.00" timeLoss="31.16" rerouteNo="0" devices="tripinfo_flow1.10" vType="vtypeauto" speedFactor="0.96" vaporized=""/>
    <tripinfo id="flow9.11" depart="30.60" departLane="A2B2_0" departPos="4.10" departSpeed="0.00" departDelay="8.60" arrival="87.40" arrivalLane="D2E2_0" arrivalPos="79.20" arrivalSpeed="14.86" duration="56.80" routeLength="375.10" waitingTime="22.30" waitingCount="1" stopTime="0.00" timeLoss="31.51" rerouteNo="0" devices="tripinfo_flow9.11" vType="vtypeauto" speedFactor="1.07" vaporized=""/>
    <tripinfo id="flow1.13" depart="36.20" departLane="A3B3_0" departPos="4.10" departSpeed="0.00" departDelay="10.20" arrival="87.50" arrivalLane="D3E3_0" arrivalPos="79.20" arrivalSpeed="13.96" duration="51.30" routeLength="375.10" waitingTime="5.30" waitingCount="1" stopTime="0.00" timeLoss="25.35" rerouteNo="0" devices="tripinfo_flow1.13" vType="vtypeauto@flow1.13" speedFactor="1.01" vaporized=""/>
    <tripinfo id="flow6.5" depart="28.00" departLane="D4D3_0" departPos="4.10" departSpeed="0.00" departDelay="18.00" arrival="88.30" arrivalLane="D1D0_1" arrivalPos="79.20" arrivalSpeed="12.42" duration="60.30" routeLength="375.10" waitingTime="6.40" waitingCount="1" stopTime="0.00" timeLoss="30.24" rerouteNo="0" devices="tripinfo_flow6.5" vType="vtypeauto" speedFactor="0.90" vaporized=""/>
    <tripinfo id="flow1.15" depart="41.70" departLane="A3B3_0" departPos="4.10" departSpeed="0.00" departDelay="11.70" arrival="88.60" arrivalLane="D3E3_0" arrivalPos="79.20" arrivalSpeed="14.00" duration="46.90" routeLength="375.10" waitingTime="3.00" waitingCount="1" stopTime="0.00" timeLoss="20.01" rerouteNo="0" devices="tripinfo_flow1.15" vType="vtypeauto@flow1.15" speedFactor="1.01" vaporized=""/>
    <tripinfo id="flow1.12" depart="33.40" departLane="A3B3_0" departPos="4.10" departSpeed="0.00" departDelay="9.40" arrival="88.70" arrivalLane="D3E3_1" arrivalPos="79.20" arrivalSpeed="15.32" duration="55.30" routeLength="375.10" waitingTime="10.20" waitingCount="1" stopTime="0.00" timeLoss="30.76" rerouteNo="0" devices="tripinfo_flow1.12" vType="vtypeauto" speedFactor="1.10" vaporized=""/>
    <tripinfo id="flow9.12" depart="33.30" departLane="A2B2_0" departPos="4.10" departSpeed="0.00" departDelay="9.30" arrival="89.00" arrivalLane="D2E2_0" arrivalPos="79.20" arrivalSpeed="13.98" duration="55.70" routeLength="375.10" waitingTime="17.00" waitingCount="1" stopTime="0.00" timeLoss="28.88" rerouteNo="0" devices="tripinfo_flow9.12" vType="vtypeauto" speedFactor="1.01" vaporized=""/>
    <tripinfo id="flow6.6" depart="33.50" departLane="D4D3_0" departPos="4.10" departSpeed="0.00" departDelay="21.50" arrival="89.90" arrivalLane="D1D0_1" arrivalPos="79.20" arrivalSpeed="12.59" duration="56.40" routeLength="375.10" waitingTime="2.10" waitingCount="1" stopTime="0.00" timeLoss="26.62" rerouteNo="0" devices="tripinfo_flow6.6" vType="vtypeauto" speedFactor="0.91" vaporized=""/>
    <tripinfo id="flow9.10" depart="27.90" departLane="A2B2_0" departPos="4.10" departSpeed="0.00" departDelay="7.90" arrival="89.90" arrivalLane="D2E2_1" arrivalPos="79.20" arrivalSpeed="0.85" duration="62.00" routeLength="375.10" waitingTime="24.20" waitingCount="1" stopTime="0.00" timeLoss="33.86" rerouteNo="0" devices="tripinfo_flow9.10" vType="vtypeauto" speedFactor="0.96" vaporized=""/>
    <tripinfo id="flow1.14" depart="38.90" departLane="A3B3_0" departPos="4.10" departSpeed="0.00" departDelay="10.90" arrival="90.10" arrivalLane="D3E3_1" arrivalPos="79.20" arrivalSpeed="16.12" duration="51.20" routeLength="375.10" waitingTime="8.90" waitingCount="1" stopTime="0.00" timeLoss="27.93" rerouteNo="0" devices="tripinfo_flow1.14" vType="vtypeauto" speedFactor="1.16" vaporized=""/>
    <tripinfo id="flow9.14" depart="38.80" departLane="A2B2_0" departPos="4.10" departSpeed="0.00" departDelay="10.80" arrival="90.50" arrivalLane="D2E2_0" arrivalPos="79.20" arrivalSpeed="14.33" duration="51.70" routeLength="375.10" waitingTime="12.20" waitingCount="1" stopTime="0.00" timeLoss="25.70" rerouteNo="0" devices="tripinfo_flow9.14" vType="vtypeauto" speedFactor="1.04" vaporized=""/>
    <tripinfo id="flow6.7" depart="39.10" departLane="D4D3_0" departPos="4.10" departSpeed="0.00" departDelay="25.10" arrival="91.40" arrivalLane="D1D0_1" arrivalPos="79.20" arrivalSpeed="14.28" duration="52.30" routeLength="375.10" waitingTime="0.00" waitingCount="0" stopTime="0.00" timeLoss="26.13" rerouteNo="0" devices="tripinfo_flow6.7" vType="vtypeauto" speedFactor="1.03" vaporized=""/>
    <tripinfo id="flow4.0" depart="1.30" departLane="C0C1_0" departPos="4.10" departSpeed="0.00" departDelay="1.30" arrival="91.60" arrivalLane="C3C4_0" arrivalPos="79.20" arrivalSpeed="14.26" duration="90.30" routeLength="375.10" waitingTime="46.70" waitingCount="3" stopTime="0.00" timeLoss="64.07" rerouteNo="0" devices="tripinfo_flow4.0" vType="vtypeauto" speedFactor="1.03" vaporized=""/>
    <tripinfo id="flow1.16" depart="44.50" departLane="A3B3_0" departPos="4.10" departSpeed="0.00" departDelay="12.50" arrival="91.60" arrivalLane="D3E3_1" arrivalPos="79.20" arrivalSpeed="14.94" duration="47.10" routeLength="375.10" waitingTime="5.50" waitingCount="1" stopTime="0.00" timeLoss="21.99" rerouteNo="0" devices="tripinfo_flow1.16" vType="vtypeauto" speedFactor="1.08" vaporized=""/>
    <tripinfo id="flow4.1" depart="4.20" departLane="C0C1_0" departPos="4.10" departSpeed="0.00" departDelay="2.20" arrival="91.80" arrivalLane="C3C4_1" arrivalPos="79.20" arrivalSpeed="13.73" duration="87.60" routeLength="375.10" waitingTime="40.30" waitingCount="2" stopTime="0.00" timeLoss="60.27" rerouteNo="0" devices="tripinfo_flow4.1" vType="vtypeauto" speedFactor="0.99" vaporized=""/>
    <tripinfo id="flow1.17" depart="47.30" departLane="A3B3_0" departPos="4.10" departSpeed="0.00" departDelay="13.30" arrival="92.20" arrivalLane="D3E3_0" arrivalPos="79.20" arrivalSpeed="12.44" duration="44.90" routeLength="375.10" waitingTime="7.80" waitingCount="1" stopTime="0.00" timeLoss="14.72" rerouteNo="0" devices="tripinfo_flow1.17" vType="vtypeauto" speedFactor="0.90" vaporized=""/>
    <tripinfo id="flow9.16" depart="44.40" departLane="A2B2_0" departPos="4.10" departSpeed="0.00" departDelay="12.40" arrival="92.30" arrivalLane="D2E2_0" arrivalPos="79.20" arrivalSpeed="13.05" duration="47.90" routeLength="375.10" waitingTime="8.00" waitingCount="1" stopTime="0.00" timeLoss="19.10" rerouteNo="0" devices="tripinfo_flow9.16" vType="vtypeauto" speedFactor="0.94" vaporized=""/>
    <tripinfo id="flow6.8" depart="44.60" departLane="D4D3_0" departPos="4.10" departSpeed="0.00" departDelay="28.60" arrival="92.90" arrivalLane="D1D0_1" arrivalPos="79.20" arrivalSpeed="13.86" duration="48.30" routeLength="375.10" waitingTime="0.00" waitingCount="0" stopTime="0.00" timeLoss="21.34" rerouteNo="0" devices="tripinfo_flow6.8" vType="vtypeauto" speedFactor="1.00" vaporized=""/>
    <tripinfo id="flow4.3" depart="10.00" departLane="C0C1_0" departPos="4.10" departSpeed="0.00" departDelay="4.00" arrival="93.30" arrivalLane="C3C4_1" arrivalPos="79.20" arrivalSpeed="13.72" duration="83.30" routeLength="375.10" waitingTime="30.40" waitingCount="2" stopTime="0.00" timeLoss="56.11" rerouteNo="0" devices="tripinfo_flow4.3" vType="vtypeauto" speedFactor="0.99" vaporized=""/>
    <tripinfo id="flow9.13" depart="36.00" departLane="A2B2_0" departPos="4.10" departSpeed="0.00" departDelay="10.00" arrival="93.40" arrivalLane="D2E2_1" arrivalPos="79.20" arrivalSpeed="0.91" duration="57.40" routeLength="375.10" waitingTime="12.80" waitingCount="1" stopTime="0.00" timeLoss="29.09" rerouteNo="0" devices="tripinfo_flow9.13" vType="vtypeauto" speedFactor="0.95" vaporized=""/>
    <tripinfo id="flow2.1" depart="2.80" departLane="A0A1_0" departPos="4.10" departSpeed="0.00" departDelay="0.80" arrival="94.20" arrivalLane="C3D3_0" arrivalPos="79.20" arrivalSpeed="13.93" duration="91.40" routeLength="540.89" waitingTime="17.70" waitingCount="1" stopTime="0.00" timeLoss="50.57" rerouteNo="0" devices="tripinfo_flow2.1" vType="vtypeauto@flow2.1" speedFactor="1.01" vaporized=""/>
    <tripinfo id="flow4.2" depart="7.10" departLane="C0C1_0" departPos="4.10" departSpeed="0.00" departDelay="3.10" arrival="94.20" arrivalLane="C3C4_0" arrivalPos="79.20" arrivalSpeed="11.35" duration="87.10" routeLength="375.10" waitingTime="30.80" waitingCount="2" stopTime="0.00" timeLoss="54.36" rerouteNo="0" devices="tripinfo_flow4.2" vType="vtypeauto" speedFactor="0.83" vaporized=""/>
    <tripinfo id="flow6.9" depart="50.20" departLane="D4D3_0" departPos="4.10" departSpeed="0.00" departDelay="32.20" arrival="94.50" arrivalLane="D1D0_1" arrivalPos="79.20" arrivalSpeed="13.99" duration="44.30" routeLength="375.10" waitingTime="0.00" waitingCount="0" stopTime="0.00" timeLoss="17.48" rerouteNo="0" devices="tripinfo_flow6.9" vType="vtypeauto" speedFactor="1.01" vaporized=""/>
    <tripinfo id="flow2.2" depart="5.60" departLane="A0A1_0" departPos="4.10" departSpeed="0.00" departDelay="1.60" arrival="95.90" arrivalLane="C3D3_0" arrivalPos="79.20" arrivalSpeed="13.90" duration="90.30" routeLength="540.89" waitingTime="15.80" waitingCount="1" stopTime="0.00" timeLoss="48.04" rerouteNo="0" devices="tripinfo_flow2.2" vType="vtypeauto@flow2.2" speedFactor="1.01" vaporized=""/>
    <tripinfo id="flow6.10" depart="55.80" departLane="D4D3_0" departPos="4.10" departSpeed="0.00" departDelay="35.80" arrival="96.00" arrivalLane="D1D0_1" arrivalPos="79.20" arrivalSpeed="13.99" duration="40.20" routeLength="375.10" waitingTime="0.00" waitingCount="0" stopTime="0.00" timeLoss="13.52" rerouteNo="0" devices="tripinfo_flow6.10" vType="vtypeauto" speedFactor="1.01" vaporized=""/>
    <tripinfo id="flow9.15" depart="41.60" departLane="A2B2_0" departPos="4.10" departSpeed="0.00" departDelay="11.60" arrival="96.90" arrivalLane="D2E2_1" arrivalPos="79.20" arrivalSpeed="0.90" duration="55.30" routeLength="375.10" waitingTime="9.70" waitingCount="1" stopTime="0.00" timeLoss="31.66" rerouteNo="0" devices="tripinfo_flow9.15" vType="vtypeauto" speedFactor="1.14" vaporized=""/>
    <tripinfo id="flow2.3" depart="8.40" departLane="A0A1_0" departPos="4.10" departSpeed="0.00" departDelay="2.40" arrival="97.40" arrivalLane="C3D3_0" arrivalPos="79.20" arrivalSpeed="13.91" duration="89.00" routeLength="540.89" waitingTime="12.50" waitingCount="1" stopTime="0.00" timeLoss="47.42" rerouteNo="0" devices="tripinfo_flow2.3" vType="vtypeauto@flow2.3" speedFactor="1.01" vaporized=""/>
    <tripinfo id="flow9.17" depart="47.20" departLane="A2B2_0" departPos="4.10" departSpeed="0.00" departDelay="13.20" arrival="97.90" arrivalLane="D2E2_0" arrivalPos="79.20" arrivalSpeed="8.48" duration="50.70" routeLength="375.10" waitingTime="6.00" waitingCount="1" stopTime="0.00" timeLoss="25.28" rerouteNo="0" devices="tripinfo_flow9.17" vType="vtypeauto" speedFactor="1.06" vaporized=""/>
    <tripinfo id="flow2.4" depart="11.10" departLane="A0A1_0" departPos="4.10" departSpeed="0.00" departDelay="3.10" arrival="99.00" arrivalLane="C3D3_0" arrivalPos="79.20" arrivalSpeed="13.93" duration="87.90" routeLength="540.89" waitingTime="11.10" waitingCount="1" stopTime="0.00" timeLoss="47.71" rerouteNo="0" devices="tripinfo_flow2.4" vType="vtypeauto@flow2.4" speedFactor="1.01" vaporized=""/>
    <tripinfo id="flow2.5" depart="13.90" departLane="A0A1_0" departPos="4.10" departSpeed="0.00" departDelay="3.90" arrival="100.20" arrivalLane="C3D3_0" arrivalPos="79.20" arrivalSpeed="15.97" duration="86.30" routeLength="540.89" waitingTime="9.70" waitingCount="1" stopTime="0.00" timeLoss="55.70" rerouteNo="0" devices="tripinfo_flow2.5" vType="vtypeauto@flow2.5" speedFactor="2.15" vaporized=""/>
    <tripinfo id="flow2.0" depart="0.00" departLane="A0A1_0" departPos="4.10" departSpeed="0.00" departDelay="0.00" arrival="102.80" arrivalLane="C3D3_0" arrivalPos="79.20" arrivalSpeed="14.00" duration="102.80" routeLength="540.89" waitingTime="37.20" waitingCount="4" stopTime="0.00" timeLoss="60.74" rerouteNo="0" devices="tripinfo_flow2.0" vType="vtypeauto" speedFactor="1.01" vaporized=""/>
    <tripinfo id="flow2.6" depart="16.60" departLane="A0A1_0" departPos="4.10" departSpeed="0.00" departDelay="4.60" arrival="105.10" arrivalLane="C3D3_0" arrivalPos="79.20" arrivalSpeed="14.05" duration="88.50" routeLength="540.89" waitingTime="11.90" waitingCount="7" stopTime="0.00" timeLoss="46.60" rerouteNo="0" devices="tripinfo_flow2.6" vType="vtypeauto" speedFactor="1.02" vaporized=""/>
    <tripinfo id="flow2.7" depart="19.40" departLane="A0A1_0" departPos="4.10" departSpeed="0.00" departDelay="5.40" arrival="108.10" arrivalLane="C3D3_0" arrivalPos="79.20" arrivalSpeed="12.97" duration="88.70" routeLength="540.89" waitingTime="9.00" waitingCount="3" stopTime="0.00" timeLoss="43.40" rerouteNo="0" devices="tripinfo_flow2.7" vType="vtypeauto" speedFactor="0.94" vaporized=""/>
    <tripinfo id="flow0.8" depart="17.10" departLane="B4B3_0" departPos="4.10" departSpeed="0.00" departDelay="1.10" arrival="109.30" arrivalLane="B3A3_1" arrivalPos="79.20" arrivalSpeed="14.25" duration="92.20" routeLength="570.75" waitingTime="32.40" waitingCount="1" stopTime="0.00" timeLoss="50.39" rerouteNo="0" devices="tripinfo_flow0.8" vType="vtypeauto" speedFactor="1.03" vaporized=""/>
    <tripinfo id="flow2.8" depart="22.20" departLane="A0A1_0" departPos="4.10" departSpeed="0.00" departDelay="6.20" arrival="110.00" arrivalLane="C3D3_0" arrivalPos="79.20" arrivalSpeed="14.01" duration="87.80" routeLength="540.89" waitingTime="7.50" waitingCount="4" stopTime="0.00" timeLoss="45.94" rerouteNo="0" devices="tripinfo_flow2.8" vType="vtypeauto" speedFactor="1.02" vaporized=""/>
    <tripinfo id="flow0.10" depart="21.30" departLane="B4B3_0" departPos="4.10" departSpeed="0.00" departDelay="1.30" arrival="111.10" arrivalLane="B3A3_1" arrivalPos="79.20" arrivalSpeed="14.79" duration="89.80" routeLength="570.75" waitingTime="24.40" waitingCount="4" stopTime="0.00" timeLoss="49.15" rerouteNo="0" devices="tripinfo_flow0.10" vType="vtypeauto" speedFactor="1.06" vaporized=""/>
    <tripinfo id="flow2.9" depart="25.10" departLane="A0A1_0" departPos="4.10" departSpeed="0.00" departDelay="7.10" arrival="113.70" arrivalLane="C3D3_0" arrivalPos="79.20" arrivalSpeed="11.57" duration="88.60" routeLength="540.89" waitingTime="6.60" waitingCount="3" stopTime="0.00" timeLoss="37.65" rerouteNo="0" devices="tripinfo_flow2.9" vType="vtypeauto" speedFactor="0.83" vaporized=""/>
    <tripinfo id="flow2.10" depart="27.90" departLane="A0A1_0" departPos="4.10" departSpeed="0.00" departDelay="7.90" arrival="115.60" arrivalLane="C3D3_0" arrivalPos="79.20" arrivalSpeed="13.35" duration="87.70" routeLength="540.89" waitingTime="5.00" waitingCount="6" stopTime="0.00" timeLoss="43.76" rerouteNo="0" devices="tripinfo_flow2.10" vType="vtypeauto" speedFactor="0.97" vaporized=""/>
    <tripinfo id="flow2.11" depart="30.70" departLane="A0A1_0" departPos="4.10" departSpeed="0.00" departDelay="8.70" arrival="117.30" arrivalLane="C3D3_0" arrivalPos="79.20" arrivalSpeed="15.17" duration="86.60" routeLength="540.89" waitingTime="3.40" waitingCount="2" stopTime="0.00" timeLoss="47.84" rerouteNo="0" devices="tripinfo_flow2.11" vType="vtypeauto" speedFactor="1.10" vaporized=""/>
    <tripinfo id="flow0.0" depart="0.00" departLane="B4B3_0" departPos="4.10" departSpeed="0.00" departDelay="0.00" arrival="118.70" arrivalLane="B3A3_1" arrivalPos="79.20" arrivalSpeed="14.61" duration="118.70" routeLength="570.75" waitingTime="51.20" waitingCount="1" stopTime="0.00" timeLoss="77.90" rerouteNo="0" devices="tripinfo_flow0.0" vType="vtypeauto" speedFactor="1.06" vaporized=""/>
    <tripinfo id="flow2.12" depart="33.40" departLane="A0A1_0" departPos="4.10" departSpeed="0.00" departDelay="9.40" arrival="120.20" arrivalLane="C3D3_0" arrivalPos="79.20" arrivalSpeed="14.26" duration="86.80" routeLength="540.89" waitingTime="12.20" waitingCount="2" stopTime="0.00" timeLoss="45.45" rerouteNo="0" devices="tripinfo_flow2.12" vType="vtypeauto" speedFactor="1.03" vaporized=""/>
    <tripinfo id="flow0.12" depart="26.70" departLane="B4B3_0" departPos="4.10" departSpeed="0.00" departDelay="2.70" arrival="126.60" arrivalLane="B3A3_1" arrivalPos="79.20" arrivalSpeed="12.95" duration="99.90" routeLength="570.75" waitingTime="21.20" waitingCount="2" stopTime="0.00" timeLoss="54.03" rerouteNo="0" devices="tripinfo_flow0.12" vType="vtypeauto" speedFactor="0.94" vaporized=""/>
    <tripinfo id="flow2.13" depart="36.20" departLane="A0A1_0" departPos="4.10" departSpeed="0.00" departDelay="10.20" arrival="127.30" arrivalLane="C3D3_0" arrivalPos="79.20" arrivalSpeed="13.26" duration="91.10" routeLength="540.89" waitingTime="16.50" waitingCount="2" stopTime="0.00" timeLoss="46.75" rerouteNo="0" devices="tripinfo_flow2.13" vType="vtypeauto" speedFactor="0.96" vaporized=""/>
    <tripinfo id="flow0.13" depart="29.40" departLane="B4B3_0" departPos="4.10" departSpeed="0.00" departDelay="3.40" arrival="128.50" arrivalLane="B3A3_1" arrivalPos="79.20" arrivalSpeed="13.93" duration="99.10" routeLength="570.75" waitingTime="19.00" waitingCount="3" stopTime="0.00" timeLoss="56.31" rerouteNo="0" devices="tripinfo_flow0.13" vType="vtypeauto@flow0.13" speedFactor="1.01" vaporized=""/>
    <tripinfo id="flow0.1" depart="2.80" departLane="B4B3_0" departPos="4.10" departSpeed="0.00" departDelay="0.80" arrival="130.00" arrivalLane="B3A3_1" arrivalPos="79.20" arrivalSpeed="15.14" duration="127.20" routeLength="570.75" waitingTime="45.70" waitingCount="1" stopTime="0.00" timeLoss="87.56" rerouteNo="0" devices="tripinfo_flow0.1" vType="vtypeauto" speedFactor="1.09" vaporized=""/>
    <tripinfo id="flow2.14" depart="39.00" departLane="A0A1_0" departPos="4.10" departSpeed="0.00" departDelay="11.00" arrival="130.20" arrivalLane="C3D3_0" arrivalPos="79.20" arrivalSpeed="12.94" duration="91.20" routeLength="540.89" waitingTime="20.90" waitingCount="1" stopTime="0.00" timeLoss="45.81" rerouteNo="0" devices="tripinfo_flow2.14" vType="vtypeauto" speedFactor="0.94" vaporized=""/>
    <tripinfo id="flow0.18" depart="43.10" departLane="B4B3_0" departPos="4.10" departSpeed="0.00" departDelay="7.10" arrival="131.50" arrivalLane="B3A3_1" arrivalPos="79.20" arrivalSpeed="15.20" duration="88.40" routeLength="570.75" waitingTime="6.10" waitingCount="3" stopTime="0.00" timeLoss="49.11" rerouteNo="0" devices="tripinfo_flow0.18" vType="vtypeauto" speedFactor="1.10" vaporized=""/>