<?xml version="1.0" encoding="UTF-8"?>

<!-- generated on 2024-10-27 16:44:04 by Eclipse SUMO sumo Version 1.20.0
<configuration xmlns:xsi="http://www.w3.org/2001/XMLSchema-instance" xsi:noNamespaceSchemaLocation="http://sumo.dlr.de/xsd/sumoConfiguration.xsd">

    <input>
        <net-file value="./sim_cfg_grid_2_lanes/grid.net.xml"/>
        <route-files value="./sim_cfg_grid_2_lanes/grid.rou.xml"/>
    </input>

    <output>
        <tripinfo-output value="./sim_cfg_grid_2_lanes/tripinfo-platooning_0.799.xml"/>
    </output>

    <time>
        <begin value="0"/>
        <end value="500"/>
        <step-length value="0.1"/>
    </time>

    <traci_server>
        <remote-port value="49238"/>
    </traci_server>

    <gui_only>
        <gui-settings-file value="./sim_cfg_grid_2_lanes/gui_settings.xml"/>
    </gui_only>

</configuration>
-->

<tripinfos xmlns:xsi="http://www.w3.org/2001/XMLSchema-instance" xsi:noNamespaceSchemaLocation="http://sumo.dlr.de/xsd/tripinfo_file.xsd">
    <tripinfo id="flow4.1" depart="4.20" departLane="C0C1_0" departPos="4.10" departSpeed="0.00" departDelay="3.20" arrival="49.60" arrivalLane="C3C4_1" arrivalPos="79.20" arrivalSpeed="14.21" duration="45.40" routeLength="375.10" waitingTime="3.00" waitingCount="1" stopTime="0.00" timeLoss="19.09" rerouteNo="0" devices="tripinfo_flow4.1" vType="vtypeauto" speedFactor="1.03" vaporized=""/>
    <tripinfo id="flow4.0" depart="1.30" departLane="C0C1_0" departPos="4.10" departSpeed="0.00" departDelay="1.30" arrival="49.70" arrivalLane="C3C4_0" arrivalPos="79.20" arrivalSpeed="14.22" duration="48.40" routeLength="375.10" waitingTime="9.30" waitingCount="2" stopTime="0.00" timeLoss="22.11" rerouteNo="0" devices="tripinfo_flow4.0" vType="vtypeauto" speedFactor="1.03" vaporized=""/>
    <tripinfo id="flow4.4" depart="13.30" departLane="C0C1_0" departPos="4.10" departSpeed="0.00" departDelay="9.30" arrival="51.30" arrivalLane="C3C4_1" arrivalPos="79.20" arrivalSpeed="13.93" duration="38.00" routeLength="375.10" waitingTime="0.00" waitingCount="0" stopTime="0.00" timeLoss="11.14" rerouteNo="0" devices="tripinfo_flow4.4" vType="vtypeauto" speedFactor="1.01" vaporized=""/>
    <tripinfo id="flow4.2" depart="7.10" departLane="C0C1_0" departPos="4.10" departSpeed="0.00" departDelay="5.10" arrival="52.20" arrivalLane="C3C4_0" arrivalPos="79.20" arrivalSpeed="12.95" duration="45.10" routeLength="375.10" waitingTime="0.00" waitingCount="0" stopTime="0.00" timeLoss="16.23" rerouteNo="0" devices="tripinfo_flow4.2" vType="vtypeauto" speedFactor="0.94" vaporized=""/>
    <tripinfo id="flow4.6" depart="19.00" departLane="C0C1_0" departPos="4.10" departSpeed="0.00" departDelay="13.00" arrival="53.00" arrivalLane="C3C4_1" arrivalPos="79.20" arrivalSpeed="13.74" duration="34.00" routeLength="375.10" waitingTime="0.00" waitingCount="0" stopTime="0.00" timeLoss="6.84" rerouteNo="0" devices="tripinfo_flow4.6" vType="vtypeauto" speedFactor="1.00" vaporized=""/>
    <tripinfo id="flow4.7" depart="21.90" departLane="C0C1_0" departPos="4.10" departSpeed="0.00" departDelay="14.90" arrival="54.40" arrivalLane="C3C4_1" arrivalPos="79.20" arrivalSpeed="15.15" duration="32.50" routeLength="375.10" waitingTime="0.00" waitingCount="0" stopTime="0.00" timeLoss="7.86" rerouteNo="0" devices="tripinfo_flow4.7" vType="vtypeauto" speedFactor="1.10" vaporized=""/>
    <tripinfo id="flow4.3" depart="10.00" departLane="C0C1_0" departPos="4.10" departSpeed="0.00" departDelay="7.00" arrival="54.70" arrivalLane="C3C4_0" arrivalPos="79.20" arrivalSpeed="12.02" duration="44.70" routeLength="375.10" waitingTime="0.00" waitingCount="0" stopTime="0.00" timeLoss="13.68" rerouteNo="0" devices="tripinfo_flow4.3" vType="vtypeauto" speedFactor="0.87" vaporized=""/>
    <tripinfo id="flow4.5" depart="16.20" departLane="C0C1_0" departPos="4.10" departSpeed="0.00" departDelay="11.20" arrival="56.30" arrivalLane="C3C4_0" arrivalPos="79.20" arrivalSpeed="12.46" duration="40.10" routeLength="375.10" waitingTime="0.00" waitingCount="0" stopTime="0.00" timeLoss="10.07" rerouteNo="0" devices="tripinfo_flow4.5" vType="vtypeauto" speedFactor="0.90" vaporized=""/>
    <tripinfo id="flow4.8" depart="24.80" departLane="C0C1_0" departPos="4.10" departSpeed="0.00" departDelay="16.80" arrival="57.80" arrivalLane="C3C4_0" arrivalPos="79.20" arrivalSpeed="14.95" duration="33.00" routeLength="375.10" waitingTime="0.00" waitingCount="0" stopTime="0.00" timeLoss="7.98" rerouteNo="0" devices="tripinfo_flow4.8" vType="vtypeauto" speedFactor="1.08" vaporized=""/>
    <tripinfo id="flow1.1" depart="2.70" departLane="A3B3_0" departPos="4.10" departSpeed="0.00" departDelay="1.70" arrival="79.80" arrivalLane="D3E3_1" arrivalPos="79.20" arrivalSpeed="12.92" duration="77.10" routeLength="375.10" waitingTime="36.50" waitingCount="2" stopTime="0.00" timeLoss="48.28" rerouteNo="0" devices="tripinfo_flow1.1" vType="vtypeauto" speedFactor="0.94" vaporized=""/>
    <tripinfo id="flow1.0" depart="0.00" departLane="A3B3_0" departPos="4.10" departSpeed="0.00" departDelay="0.00" arrival="80.20" arrivalLane="D3E3_0" arrivalPos="79.20" arrivalSpeed="12.98" duration="80.20" routeLength="375.10" waitingTime="39.70" waitingCount="2" stopTime="0.00" timeLoss="51.41" rerouteNo="0" devices="tripinfo_flow1.0" vType="vtypeauto" speedFactor="0.94" vaporized=""/>
    <tripinfo id="flow1.3" depart="8.20" departLane="A3B3_0" departPos="4.10" departSpeed="0.00" departDelay="5.20" arrival="81.40" arrivalLane="D3E3_1" arrivalPos="79.20" arrivalSpeed="13.43" duration="73.20" routeLength="375.10" waitingTime="29.00" waitingCount="1" stopTime="0.00" timeLoss="45.44" rerouteNo="0" devices="tripinfo_flow1.3" vType="vtypeauto" speedFactor="0.97" vaporized=""/>
    <tripinfo id="flow1.2" depart="5.40" departLane="A3B3_0" departPos="4.10" departSpeed="0.00" departDelay="3.40" arrival="81.70" arrivalLane="D3E3_0" arrivalPos="79.20" arrivalSpeed="13.92" duration="76.30" routeLength="375.10" waitingTime="29.00" waitingCount="1" stopTime="0.00" timeLoss="47.78" rerouteNo="0" devices="tripinfo_flow1.2" vType="vtypeauto@flow1.2" speedFactor="1.01" vaporized=""/>
    <tripinfo id="flow1.4" depart="11.00" departLane="A3B3_0" departPos="4.10" departSpeed="0.00" departDelay="7.00" arrival="82.80" arrivalLane="D3E3_0" arrivalPos="79.20" arrivalSpeed="13.93" duration="71.80" routeLength="375.10" waitingTime="26.90" waitingCount="1" stopTime="0.00" timeLoss="43.45" rerouteNo="0" devices="tripinfo_flow1.4" vType="vtypeauto@flow1.4" speedFactor="1.01" vaporized=""/>
    <tripinfo id="flow1.5" depart="13.80" departLane="A3B3_0" departPos="4.10" departSpeed="0.00" departDelay="8.80" arrival="82.90" arrivalLane="D3E3_1" arrivalPos="79.20" arrivalSpeed="13.44" duration="69.10" routeLength="375.10" waitingTime="27.20" waitingCount="1" stopTime="0.00" timeLoss="41.35" rerouteNo="0" devices="tripinfo_flow1.5" vType="vtypeauto" speedFactor="0.97" vaporized=""/>
    <tripinfo id="flow1.6" depart="16.60" departLane="A3B3_0" departPos="4.10" departSpeed="0.00" departDelay="10.60" arrival="83.90" arrivalLane="D3E3_0" arrivalPos="79.20" arrivalSpeed="14.00" duration="67.30" routeLength="375.10" waitingTime="25.00" waitingCount="1" stopTime="0.00" timeLoss="41.03" rerouteNo="0" devices="tripinfo_flow1.6" vType="vtypeauto@flow1.6" speedFactor="1.01" vaporized=""/>
    <tripinfo id="flow2.0" depart="0.00" departLane="A0A1_0" departPos="4.10" departSpeed="0.00" departDelay="0.00" arrival="84.40" arrivalLane="C3D3_0" arrivalPos="79.20" arrivalSpeed="11.18" duration="84.40" routeLength="540.89" waitingTime="18.90" waitingCount="3" stopTime="0.00" timeLoss="42.31" rerouteNo="0" devices="tripinfo_flow2.0" vType="vtypeauto" speedFactor="1.01" vaporized=""/>
    <tripinfo id="flow1.8" depart="22.20" departLane="A3B3_0" departPos="4.10" departSpeed="0.00" departDelay="14.20" arrival="84.40" arrivalLane="D3E3_1" arrivalPos="79.20" arrivalSpeed="15.62" duration="62.20" routeLength="375.10" waitingTime="17.00" waitingCount="2" stopTime="0.00" timeLoss="38.51" rerouteNo="0" devices="tripinfo_flow1.8" vType="vtypeauto" speedFactor="1.14" vaporized=""/>
    <tripinfo id="flow1.7" depart="19.40" departLane="A3B3_0" departPos="4.10" departSpeed="0.00" departDelay="12.40" arrival="85.10" arrivalLane="D3E3_0" arrivalPos="79.20" arrivalSpeed="13.97" duration="65.70" routeLength="375.10" waitingTime="18.40" waitingCount="2" stopTime="0.00" timeLoss="35.76" rerouteNo="0" devices="tripinfo_flow1.7" vType="vtypeauto@flow1.7" speedFactor="1.01" vaporized=""/>
    <tripinfo id="flow2.1" depart="2.80" departLane="A0A1_0" departPos="4.10" departSpeed="0.00" departDelay="1.80" arrival="85.50" arrivalLane="C3D3_0" arrivalPos="79.20" arrivalSpeed="12.29" duration="82.70" routeLength="540.89" waitingTime="6.90" waitingCount="1" stopTime="0.00" timeLoss="35.16" rerouteNo="0" devices="tripinfo_flow2.1" vType="vtypeauto@flow2.1" speedFactor="1.01" vaporized=""/>
    <tripinfo id="flow1.10" depart="27.80" departLane="A3B3_0" departPos="4.10" departSpeed="0.00" departDelay="17.80" arrival="86.00" arrivalLane="D3E3_1" arrivalPos="79.20" arrivalSpeed="13.44" duration="58.20" routeLength="375.10" waitingTime="6.90" waitingCount="1" stopTime="0.00" timeLoss="30.43" rerouteNo="0" devices="tripinfo_flow1.10" vType="vtypeauto" speedFactor="0.97" vaporized=""/>
    <tripinfo id="flow2.2" depart="5.60" departLane="A0A1_0" departPos="4.10" departSpeed="0.00" departDelay="3.60" arrival="86.70" arrivalLane="C3D3_0" arrivalPos="79.20" arrivalSpeed="13.14" duration="81.10" routeLength="540.89" waitingTime="4.40" waitingCount="1" stopTime="0.00" timeLoss="34.54" rerouteNo="0" devices="tripinfo_flow2.2" vType="vtypeauto@flow2.2" speedFactor="1.01" vaporized=""/>
    <tripinfo id="flow1.9" depart="25.00" departLane="A3B3_0" departPos="4.10" departSpeed="0.00" departDelay="16.00" arrival="86.70" arrivalLane="D3E3_0" arrivalPos="79.20" arrivalSpeed="12.97" duration="61.70" routeLength="375.10" waitingTime="9.70" waitingCount="1" stopTime="0.00" timeLoss="32.81" rerouteNo="0" devices="tripinfo_flow1.9" vType="vtypeauto" speedFactor="0.94" vaporized=""/>
    <tripinfo id="flow1.12" depart="33.30" departLane="A3B3_0" departPos="4.10" departSpeed="0.00" departDelay="21.30" arrival="87.60" arrivalLane="D3E3_1" arrivalPos="79.20" arrivalSpeed="13.48" duration="54.30" routeLength="375.10" waitingTime="2.40" waitingCount="1" stopTime="0.00" timeLoss="26.57" rerouteNo="0" devices="tripinfo_flow1.12" vType="vtypeauto" speedFactor="0.98" vaporized=""/>
    <tripinfo id="flow2.3" depart="8.40" departLane="A0A1_0" departPos="4.10" departSpeed="0.00" departDelay="5.40" arrival="87.80" arrivalLane="C3D3_0" arrivalPos="79.20" arrivalSpeed="13.75" duration="79.40" routeLength="540.89" waitingTime="1.20" waitingCount="1" stopTime="0.00" timeLoss="36.50" rerouteNo="0" devices="tripinfo_flow2.3" vType="vtypeauto@flow2.3" speedFactor="2.15" vaporized=""/>
    <tripinfo id="flow1.11" depart="30.60" departLane="A3B3_0" departPos="4.10" departSpeed="0.00" departDelay="19.60" arrival="88.20" arrivalLane="D3E3_0" arrivalPos="79.20" arrivalSpeed="13.88" duration="57.60" routeLength="375.10" waitingTime="5.60" waitingCount="1" stopTime="0.00" timeLoss="30.70" rerouteNo="0" devices="tripinfo_flow1.11" vType="vtypeauto" speedFactor="1.01" vaporized=""/>
    <tripinfo id="flow1.14" depart="38.80" departLane="A3B3_0" departPos="4.10" departSpeed="0.00" departDelay="24.80" arrival="89.00" arrivalLane="D3E3_1" arrivalPos="79.20" arrivalSpeed="15.12" duration="50.20" routeLength="375.10" waitingTime="0.00" waitingCount="0" stopTime="0.00" timeLoss="25.59" rerouteNo="0" devices="tripinfo_flow1.14" vType="vtypeauto" speedFactor="1.10" vaporized=""/>
    <tripinfo id="flow2.4" depart="11.10" departLane="A0A1_0" departPos="4.10" departSpeed="0.00" departDelay="7.10" arrival="89.20" arrivalLane="C3D3_0" arrivalPos="79.20" arrivalSpeed="15.00" duration="78.10" routeLength="540.89" waitingTime="2.90" waitingCount="1" stopTime="0.00" timeLoss="41.97" rerouteNo="0" devices="tripinfo_flow2.4" vType="vtypeauto" speedFactor="1.18" vaporized=""/>
    <tripinfo id="flow1.13" depart="36.10" departLane="A3B3_0" departPos="4.10" departSpeed="0.00" departDelay="23.10" arrival="90.20" arrivalLane="D3E3_0" arrivalPos="79.20" arrivalSpeed="11.56" duration="54.10" routeLength="375.10" waitingTime="0.00" waitingCount="0" stopTime="0.00" timeLoss="21.62" rerouteNo="0" devices="tripinfo_flow1.13" vType="vtypeauto" speedFactor="0.83" vaporized=""/>
    <tripinfo id="flow2.5" depart="13.90" departLane="A0A1_0" departPos="4.10" departSpeed="0.00" departDelay="8.90" arrival="90.50" arrivalLane="C3D3_0" arrivalPos="79.20" arrivalSpeed="16.23" duration="76.60" routeLength="540.89" waitingTime="0.00" waitingCount="0" stopTime="0.00" timeLoss="40.50" rerouteNo="0" devices="tripinfo_flow2.5" vType="vtypeauto" speedFactor="1.18" vaporized=""/>
    <tripinfo id="flow1.16" depart="44.40" departLane="A3B3_0" departPos="4.10" departSpeed="0.00" departDelay="28.40" arrival="90.60" arrivalLane="D3E3_1" arrivalPos="79.20" arrivalSpeed="13.91" duration="46.20" routeLength="375.10" waitingTime="0.00" waitingCount="0" stopTime="0.00" timeLoss="19.41" rerouteNo="0" devices="tripinfo_flow1.16" vType="vtypeauto" speedFactor="1.01" vaporized=""/>
    <tripinfo id="flow1.15" depart="41.60" departLane="A3B3_0" departPos="4.10" departSpeed="0.00" departDelay="26.60" arrival="91.70" arrivalLane="D3E3_0" arrivalPos="79.20" arrivalSpeed="14.04" duration="50.10" routeLength="375.10" waitingTime="0.00" waitingCount="0" stopTime="0.00" timeLoss="23.39" rerouteNo="0" devices="tripinfo_flow1.15" vType="vtypeauto" speedFactor="1.01" vaporized=""/>
    <tripinfo id="flow2.6" depart="16.70" departLane="A0A1_0" departPos="4.10" departSpeed="0.00" departDelay="10.70" arrival="91.90" arrivalLane="C3D3_0" arrivalPos="79.20" arrivalSpeed="14.41" duration="75.20" routeLength="540.89" waitingTime="0.00" waitingCount="0" stopTime="0.00" timeLoss="34.49" rerouteNo="0" devices="tripinfo_flow2.6" vType="vtypeauto" speedFactor="1.04" vaporized=""/>
    <tripinfo id="flow1.17" depart="47.20" departLane="A3B3_0" departPos="4.10" departSpeed="0.00" departDelay="30.20" arrival="92.40" arrivalLane="D3E3_1" arrivalPos="79.20" arrivalSpeed="12.95" duration="45.20" routeLength="375.10" waitingTime="0.00" waitingCount="0" stopTime="0.00" timeLoss="16.45" rerouteNo="0" devices="tripinfo_flow1.17" vType="vtypeauto" speedFactor="0.94" vaporized=""/>
    <tripinfo id="flow2.9" depart="25.10" departLane="A0A1_0" departPos="4.10" departSpeed="0.00" departDelay="16.10" arrival="95.00" arrivalLane="C3D3_0" arrivalPos="79.20" arrivalSpeed="12.19" duration="69.90" routeLength="540.89" waitingTime="0.00" waitingCount="0" stopTime="0.00" timeLoss="21.65" rerouteNo="0" devices="tripinfo_flow2.9" vType="vtypeauto" speedFactor="0.88" vaporized=""/>
    <tripinfo id="flow2.7" depart="19.50" departLane="A0A1_0" departPos="4.10" departSpeed="0.00" departDelay="12.50" arrival="96.40" arrivalLane="C3D3_0" arrivalPos="79.20" arrivalSpeed="14.71" duration="76.90" routeLength="540.89" waitingTime="2.60" waitingCount="1" stopTime="0.00" timeLoss="40.52" rerouteNo="0" devices="tripinfo_flow2.7" vType="vtypeauto" speedFactor="1.17" vaporized=""/>
    <tripinfo id="flow2.8" depart="22.30" departLane="A0A1_0" departPos="4.10" departSpeed="0.00" departDelay="14.30" arrival="98.30" arrivalLane="C3D3_0" arrivalPos="79.20" arrivalSpeed="14.11" duration="76.00" routeLength="540.89" waitingTime="0.00" waitingCount="0" stopTime="0.00" timeLoss="34.34" rerouteNo="0" devices="tripinfo_flow2.8" vType="vtypeauto" speedFactor="1.02" vaporized=""/>
    <tripinfo id="flow2.10" depart="27.90" departLane="A0A1_0" departPos="4.10" departSpeed="0.00" departDelay="17.90" arrival="101.00" arrivalLane="C3D3_0" arrivalPos="79.20" arrivalSpeed="12.94" duration="73.10" routeLength="540.89" waitingTime="0.00" waitingCount="0" stopTime="0.00" timeLoss="27.72" rerouteNo="0" devices="tripinfo_flow2.10" vType="vtypeauto" speedFactor="0.94" vaporized=""/>
    <tripinfo id="flow2.11" depart="30.70" departLane="A0A1_0" departPos="4.10" departSpeed="0.00" departDelay="19.70" arrival="102.50" arrivalLane="C3D3_0" arrivalPos="79.20" arrivalSpeed="15.06" duration="71.80" routeLength="540.89" waitingTime="0.00" waitingCount="0" stopTime="0.00" timeLoss="32.60" rerouteNo="0" devices="tripinfo_flow2.11" vType="vtypeauto" speedFactor="1.09" vaporized=""/>
    <tripinfo id="flow2.12" depart="33.50" departLane="A0A1_0" departPos="4.10" departSpeed="0.00" departDelay="21.50" arrival="105.00" arrivalLane="C3D3_0" arrivalPos="79.20" arrivalSpeed="13.82" duration="71.50" routeLength="540.89" waitingTime="0.00" waitingCount="0" stopTime="0.00" timeLoss="29.01" rerouteNo="0" devices="tripinfo_flow2.12" vType="vtypeauto" speedFactor="1.00" vaporized=""/>
    <tripinfo id="flow0.0" depart="0.00" departLane="B4B3_0" departPos="4.10" departSpeed="0.00" departDelay="0.00" arrival="105.50" arrivalLane="B3A3_1" arrivalPos="79.20" arrivalSpeed="14.61" duration="105.50" routeLength="570.75" waitingTime="51.20" waitingCount="1" stopTime="0.00" timeLoss="64.75" rerouteNo="0" devices="tripinfo_flow0.0" vType="vtypeauto" speedFactor="1.06" vaporized=""/>
    <tripinfo id="flow0.6" depart="8.80" departLane="B4B3_0" departPos="4.10" departSpeed="0.00" departDelay="2.80" arrival="107.60" arrivalLane="B3A3_1" arrivalPos="79.20" arrivalSpeed="15.15" duration="98.80" routeLength="570.75" waitingTime="35.50" waitingCount="1" stopTime="0.00" timeLoss="59.22" rerouteNo="0" devices="tripinfo_flow0.6" vType="vtypeauto" speedFactor="1.09" vaporized=""/>
    <tripinfo id="flow2.13" depart="36.30" departLane="A0A1_0" departPos="4.10" departSpeed="0.00" departDelay="23.30" arrival="107.80" arrivalLane="C3D3_0" arrivalPos="79.20" arrivalSpeed="12.79" duration="71.50" routeLength="540.89" waitingTime="0.00" waitingCount="0" stopTime="0.00" timeLoss="25.34" rerouteNo="0" devices="tripinfo_flow2.13" vType="vtypeauto" speedFactor="0.92" vaporized=""/>
    <tripinfo id="flow2.14" depart="39.10" departLane="A0A1_0" departPos="4.10" departSpeed="0.00" departDelay="25.10" arrival="109.50" arrivalLane="C3D3_0" arrivalPos="79.20" arrivalSpeed="14.67" duration="70.40" routeLength="540.89" waitingTime="0.00" waitingCount="0" stopTime="0.00" timeLoss="30.47" rerouteNo="0" devices="tripinfo_flow2.14" vType="vtypeauto" speedFactor="1.06" vaporized=""/>
    <tripinfo id="flow0.1" depart="2.80" departLane="B4B3_0" departPos="4.10" departSpeed="0.00" departDelay="1.80" arrival="115.80" arrivalLane="B3A3_1" arrivalPos="79.20" arrivalSpeed="12.23" duration="113.00" routeLength="570.75" waitingTime="45.80" waitingCount="1" stopTime="0.00" timeLoss="64.17" rerouteNo="0" devices="tripinfo_flow0.1" vType="vtypeauto" speedFactor="0.89" vaporized=""/>
    <tripinfo id="flow0.8" depart="12.00" departLane="B4B3_0" departPos="4.10" departSpeed="0.00" departDelay="4.00" arrival="117.00" arrivalLane="B3A3_1" arrivalPos="79.20" arrivalSpeed="13.98" duration="105.00" routeLength="570.75" waitingTime="28.50" waitingCount="2" stopTime="0.00" timeLoss="61.56" rerouteNo="0" devices="tripinfo_flow0.8" vType="vtypeauto@flow0.8" speedFactor="1.01" vaporized=""/>
    <tripinfo id="flow0.10" depart="15.90" departLane="B4B3_0" departPos="4.10" departSpeed="0.00" departDelay="5.90" arrival="118.20" arrivalLane="B3A3_1" arrivalPos="79.20" arrivalSpeed="13.94" duration="102.30" routeLength="570.75" waitingTime="25.40" waitingCount="2" stopTime="0.00" timeLoss="59.52" rerouteNo="0" devices="tripinfo_flow0.10" vType="vtypeauto@flow0.10" speedFactor="1.01" vaporized=""/>
    <tripinfo id="flow0.12" depart="20.20" departLane="B4B3_0" departPos="4.10" departSpeed="0.00" departDelay="8.20" arrival="119.60" arrivalLane="B3A3_1" arrivalPos="79.20" arrivalSpeed="13.92" duration="99.40" routeLength="570.75" waitingTime="23.00" waitingCount="2" stopTime="0.00" timeLoss="56.91" rerouteNo="0" devices="tripinfo_flow0.12" vType="vtypeauto@flow0.12" speedFactor="1.01" vaporized=""/>
    <tripinfo id="flow3.0" depart="0.00" departLane="C0C1_0" departPos="4.10" departSpeed="0.00" departDelay="0.00" arrival="152.00" arrivalLane="D4E4_0" arrivalPos="83.20" arrivalSpeed="15.02" duration="152.00" routeLength="1101.23" waitingTime="39.80" waitingCount="4" stopTime="0.00" timeLoss="71.66" rerouteNo="0" devices="tripinfo_flow3.0" vType="vtypeauto" speedFactor="1.08" vaporized=""/>
    <tripinfo id="flow3.1" depart="4.10" departLane="C0C1_0" departPos="4.10" departSpeed="0.00" departDelay="3.10" arrival="154.60" arrivalLane="D4E4_0" arrivalPos="83.20" arrivalSpeed="15.07" duration="150.50" routeLength="1101.23" waitingTime="23.60" waitingCount="2" stopTime="0.00" timeLoss="70.62" rerouteNo="0" devices="tripinfo_flow3.1" vType="vtypeauto" speedFactor="1.09" vaporized=""/>
    <tripinfo id="flow4.10" depart="30.60" departLane="C0C1_0" departPos="4.10" departSpeed="0.00" departDelay="20.60" arrival="156.00" arrivalLane="C3C4_1" arrivalPos="79.20" arrivalSpeed="13.22" duration="125.40" routeLength="375.10" waitingTime="84.80" waitingCount="2" stopTime="0.00" timeLoss="97.05" rerouteNo="0" devices="tripinfo_flow4.10" vType="vtypeauto" speedFactor="0.96" vaporized=""/>
    <tripinfo id="flow4.9" depart="27.70" departLane="C0C1_0" departPos="4.10" departSpeed="0.00" departDelay="18.70" arrival="156.10" arrivalLane="C3C4_0" arrivalPos="79.20" arrivalSpeed="12.70" duration="128.40" routeLength="375.10" waitingTime="87.20" waitingCount="2" stopTime="0.00" timeLoss="98.82" rerouteNo="0" devices="tripinfo_flow4.9" vType="vtypeauto" speedFactor="0.91" vaporized=""/>
    <tripinfo id="flow4.12" depart="36.40" departLane="C0C1_0" departPos="4.10" departSpeed="0.00" departDelay="24.40" arrival="157.50" arrivalLane="C3C4_1" arrivalPos="79.20" arrivalSpeed="13.95" duration="121.10" routeLength="375.10" waitingTime="72.60" waitingCount="2" stopTime="0.00" timeLoss="94.22" rerouteNo="0" devices="tripinfo_flow4.12" vType="vtypeauto" speedFactor="1.01" vaporized=""/>
    <tripinfo id="flow4.11" depart="33.50" departLane="C0C1_0" departPos="4.10" departSpeed="0.00" departDelay="22.50" arrival="157.60" arrivalLane="C3C4_0" arrivalPos="79.20" arrivalSpeed="13.93" duration="124.10" routeLength="375.10" waitingTime="75.50" waitingCount="2" stopTime="0.00" timeLoss="97.14" rerouteNo="0" devices="tripinfo_flow4.11" vType="vtypeauto@flow4.11" speedFactor="1.01" vaporized=""/>
    <tripinfo id="flow4.13" depart="39.30" departLane="C0C1_0" departPos="4.10" departSpeed="0.00" departDelay="26.30" arrival="158.80" arrivalLane="C3C4_0" arrivalPos="79.20" arrivalSpeed="13.96" duration="119.50" routeLength="375.10" waitingTime="68.80" waitingCount="2" stopTime="0.00" timeLoss="93.18" rerouteNo="0" devices="tripinfo_flow4.13" vType="vtypeauto@flow4.13" speedFactor="1.01" vaporized=""/>
    <tripinfo id="flow4.14" depart="42.20" departLane="C0C1_0" departPos="4.10" departSpeed="0.00" departDelay="28.20" arrival="159.00" arrivalLane="C3C4_1" arrivalPos="79.20" arrivalSpeed="13.37" duration="116.80" routeLength="375.10" waitingTime="65.70" waitingCount="2" stopTime="0.00" timeLoss="88.91" rerouteNo="0" devices="tripinfo_flow4.14" vType="vtypeauto" speedFactor="0.97" vaporized=""/>
    <tripinfo id="flow3.2" depart="7.00" departLane="C0C1_0" departPos="4.10" departSpeed="0.00" departDelay="5.00" arrival="159.30" arrivalLane="D4E4_0" arrivalPos="83.20" arrivalSpeed="13.03" duration="152.30" routeLength="1101.23" waitingTime="17.30" waitingCount="1" stopTime="0.00" timeLoss="59.73" rerouteNo="0" devices="tripinfo_flow3.2" vType="vtypeauto" speedFactor="0.94" vaporized=""/>
    <tripinfo id="flow4.15" depart="45.00" departLane="C0C1_0" departPos="4.10" departSpeed="0.00" departDelay="30.00" arrival="160.00" arrivalLane="C3C4_0" arrivalPos="79.20" arrivalSpeed="13.97" duration="115.00" routeLength="375.10" waitingTime="62.10" waitingCount="2" stopTime="0.00" timeLoss="87.63" rerouteNo="0" devices="tripinfo_flow4.15" vType="vtypeauto@flow4.15" speedFactor="1.01" vaporized=""/>
    <tripinfo id="flow4.16" depart="47.90" departLane="C0C1_0" departPos="4.10" departSpeed="0.00" departDelay="31.90" arrival="160.50" arrivalLane="C3C4_1" arrivalPos="79.20" arrivalSpeed="16.00" duration="112.60" routeLength="375.10" waitingTime="60.50" waitingCount="2" stopTime="0.00" timeLoss="89.58" rerouteNo="0" devices="tripinfo_flow4.16" vType="vtypeauto" speedFactor="1.18" vaporized=""/>
    <tripinfo id="flow4.17" depart="50.80" departLane="C0C1_0" departPos="4.10" departSpeed="0.00" departDelay="33.80" arrival="161.80" arrivalLane="C3C4_0" arrivalPos="79.20" arrivalSpeed="13.95" duration="111.00" routeLength="375.10" waitingTime="56.10" waitingCount="2" stopTime="0.00" timeLoss="84.27" rerouteNo="0" devices="tripinfo_flow4.17" vType="vtypeauto@flow4.17" speedFactor="1.01" vaporized=""/>
    <tripinfo id="flow4.19" depart="56.60" departLane="C0C1_0" departPos="4.10" departSpeed="0.00" departDelay="37.60" arrival="161.80" arrivalLane="C3C4_1" arrivalPos="79.20" arrivalSpeed="13.94" duration="105.20" routeLength="375.10" waitingTime="50.70" waitingCount="2" stopTime="0.00" timeLoss="78.38" rerouteNo="0" devices="tripinfo_flow4.19" vType="vtypeauto@flow4.19" speedFactor="1.01" vaporized=""/>
    <tripinfo id="flow4.18" depart="53.70" departLane="C0C1_0" departPos="4.10" departSpeed="0.00" departDelay="35.70" arrival="162.90" arrivalLane="C3C4_0" arrivalPos="79.20" arrivalSpeed="13.98" duration="109.20" routeLength="375.10" waitingTime="52.80" waitingCount="2" stopTime="0.00" timeLoss="82.81" rerouteNo="0" devices="tripinfo_flow4.18" vType="vtypeauto@flow4.18" speedFactor="1.01" vaporized=""/>
    <tripinfo id="flow4.22" depart="65.20" departLane="C0C1_0" departPos="4.10" departSpeed="0.00" departDelay="43.20" arrival="164.20" arrivalLane="C3C4_0" arrivalPos="79.20" arrivalSpeed="14.00" duration="99.00" routeLength="375.10" waitingTime="43.80" waitingCount="2" stopTime="0.00" timeLoss="70.28" rerouteNo="0" devices="tripinfo_flow4.22" vType="vtypeauto@flow4.22" speedFactor="1.01" vaporized=""/>
    <tripinfo id="flow4.20" depart="59.50" departLane="C0C1_0" departPos="4.10" departSpeed="0.00" departDelay="39.50" arrival="165.10" arrivalLane="C3C4_1" arrivalPos="79.20" arrivalSpeed="10.16" duration="105.60" routeLength="375.10" waitingTime="53.10" waitingCount="2" stopTime="0.00" timeLoss="68.75" rerouteNo="0" devices="tripinfo_flow4.20" vType="vtypeauto" speedFactor="0.73" vaporized=""/>
    <tripinfo id="flow4.24" depart="71.00" departLane="C0C1_0" departPos="4.10" departSpeed="0.00" departDelay="47.00" arrival="165.30" arrivalLane="C3C4_0" arrivalPos="79.20" arrivalSpeed="13.88" duration="94.30" routeLength="375.10" waitingTime="38.30" waitingCount="2" stopTime="0.00" timeLoss="65.35" rerouteNo="0" devices="tripinfo_flow4.24" vType="vtypeauto@flow4.24" speedFactor="1.01" vaporized=""/>
    <tripinfo id="flow3.3" depart="9.90" departLane="C0C1_0" departPos="4.10" departSpeed="0.00" departDelay="6.90" arrival="166.30" arrivalLane="D4E4_0" arrivalPos="83.20" arrivalSpeed="11.39" duration="156.40" routeLength="1101.23" waitingTime="6.50" waitingCount="1" stopTime="0.00" timeLoss="50.90" rerouteNo="0" devices="tripinfo_flow3.3" vType="vtypeauto" speedFactor="0.83" vaporized=""/>
    <tripinfo id="flow4.25" depart="73.90" departLane="C0C1_0" departPos="4.10" departSpeed="0.00" departDelay="48.90" arrival="166.50" arrivalLane="C3C4_0" arrivalPos="79.20" arrivalSpeed="13.91" duration="92.60" routeLength="375.10" waitingTime="34.80" waitingCount="2" stopTime="0.00" timeLoss="66.57" rerouteNo="0" devices="tripinfo_flow4.25" vType="vtypeauto@flow4.25" speedFactor="1.01" vaporized=""/>
    <tripinfo id="flow4.21" depart="62.30" departLane="C0C1_0" departPos="4.10" departSpeed="0.00" departDelay="41.30" arrival="166.70" arrivalLane="C3C4_1" arrivalPos="79.20" arrivalSpeed="13.40" duration="104.40" routeLength="375.10" waitingTime="45.90" waitingCount="2" stopTime="0.00" timeLoss="77.43" rerouteNo="0" devices="tripinfo_flow4.21" vType="vtypeauto" speedFactor="1.00" vaporized=""/>
    <tripinfo id="flow5.0" depart="0.00" departLane="E2D2_0" departPos="4.10" departSpeed="0.00" departDelay="0.00" arrival="166.80" arrivalLane="B1A1_0" arrivalPos="79.20" arrivalSpeed="4.35" duration="166.80" routeLength="635.44" waitingTime="82.40" waitingCount="4" stopTime="0.00" timeLoss="106.63" rerouteNo="0" devices="tripinfo_flow5.0" vType="vtypeauto" speedFactor="0.83" vaporized=""/>
    <tripinfo id="flow3.4" depart="12.70" departLane="C0C1_0" departPos="4.10" departSpeed="0.00" departDelay="8.70" arrival="167.80" arrivalLane="D4E4_0" arrivalPos="83.20" arrivalSpeed="14.10" duration="155.10" routeLength="1101.23" waitingTime="3.50" waitingCount="1" stopTime="0.00" timeLoss="79.57" rerouteNo="0" devices="tripinfo_flow3.4" vType="vtypeauto" speedFactor="1.15" vaporized=""/>
    <tripinfo id="flow5.2" depart="3.30" departLane="E2D2_0" departPos="4.10" departSpeed="0.00" departDelay="1.30" arrival="167.90" arrivalLane="B1A1_1" arrivalPos="79.20" arrivalSpeed="6.20" duration="164.60" routeLength="635.44" waitingTime="65.60" waitingCount="3" stopTime="0.00" timeLoss="118.82" rerouteNo="0" devices="tripinfo_flow5.2" vType="vtypeauto@flow5.2" speedFactor="1.01" vaporized=""/>
    <tripinfo id="flow4.26" depart="76.80" departLane="C0C1_0" departPos="4.10" departSpeed="0.00" departDelay="50.80" arrival="167.90" arrivalLane="C3C4_0" arrivalPos="79.20" arrivalSpeed="14.96" duration="91.10" routeLength="375.10" waitingTime="32.20" waitingCount="2" stopTime="0.00" timeLoss="66.01" rerouteNo="0" devices="tripinfo_flow4.26" vType="vtypeauto" speedFactor="1.08" vaporized=""/>