<?xml version="1.0" encoding="UTF-8"?>

<!-- generated on 2024-10-30 18:59:33 by Eclipse SUMO sumo Version 1.20.0
<configuration xmlns:xsi="http://www.w3.org/2001/XMLSchema-instance" xsi:noNamespaceSchemaLocation="http://sumo.dlr.de/xsd/sumoConfiguration.xsd">

    <input>
        <net-file value="./sim_cfg_grid_2_lanes/grid.net.xml"/>
        <route-files value="./sim_cfg_grid_2_lanes/7x1.rou.xml"/>
    </input>

    <output>
        <tripinfo-output value="./sim_cfg_grid_2_lanes/tripinfo_0.685.xml"/>
    </output>

    <time>
        <begin value="0"/>
        <end value="500"/>
        <step-length value="0.1"/>
    </time>

    <traci_server>
        <remote-port value="50064"/>
    </traci_server>

    <gui_only>
        <gui-settings-file value="./sim_cfg_grid_2_lanes/gui_settings.xml"/>
    </gui_only>

</configuration>
-->

<tripinfos xmlns:xsi="http://www.w3.org/2001/XMLSchema-instance" xsi:noNamespaceSchemaLocation="http://sumo.dlr.de/xsd/tripinfo_file.xsd">
    <tripinfo id="flow1.2" depart="5.40" departLane="A3B3_0" departPos="4.10" departSpeed="0.00" departDelay="3.40" arrival="79.30" arrivalLane="D3E3_1" arrivalPos="79.20" arrivalSpeed="15.55" duration="73.90" routeLength="375.10" waitingTime="35.20" waitingCount="2" stopTime="0.00" timeLoss="49.86" rerouteNo="0" devices="tripinfo_flow1.2" vType="vtypeauto" speedFactor="1.12" vaporized=""/>
    <tripinfo id="flow1.0" depart="0.00" departLane="A3B3_0" departPos="4.10" departSpeed="0.00" departDelay="0.00" arrival="80.00" arrivalLane="D3E3_0" arrivalPos="79.20" arrivalSpeed="13.00" duration="80.00" routeLength="375.10" waitingTime="39.70" waitingCount="2" stopTime="0.00" timeLoss="51.18" rerouteNo="0" devices="tripinfo_flow1.0" vType="vtypeauto" speedFactor="0.94" vaporized=""/>
    <tripinfo id="flow1.3" depart="8.20" departLane="A3B3_0" departPos="4.10" departSpeed="0.00" departDelay="5.20" arrival="80.70" arrivalLane="D3E3_1" arrivalPos="79.20" arrivalSpeed="15.99" duration="72.50" routeLength="375.10" waitingTime="29.20" waitingCount="1" stopTime="0.00" timeLoss="49.19" rerouteNo="0" devices="tripinfo_flow1.3" vType="vtypeauto" speedFactor="1.16" vaporized=""/>
    <tripinfo id="flow1.1" depart="2.70" departLane="A3B3_0" departPos="4.10" departSpeed="0.00" departDelay="1.70" arrival="81.70" arrivalLane="D3E3_0" arrivalPos="79.20" arrivalSpeed="12.19" duration="79.00" routeLength="375.10" waitingTime="29.50" waitingCount="2" stopTime="0.00" timeLoss="48.52" rerouteNo="0" devices="tripinfo_flow1.1" vType="vtypeauto" speedFactor="0.89" vaporized=""/>
    <tripinfo id="flow1.5" depart="13.80" departLane="A3B3_0" departPos="4.10" departSpeed="0.00" departDelay="8.80" arrival="82.20" arrivalLane="D3E3_1" arrivalPos="79.20" arrivalSpeed="16.03" duration="68.40" routeLength="375.10" waitingTime="27.40" waitingCount="1" stopTime="0.00" timeLoss="44.92" rerouteNo="0" devices="tripinfo_flow1.5" vType="vtypeauto" speedFactor="1.15" vaporized=""/>
    <tripinfo id="flow1.4" depart="11.00" departLane="A3B3_0" departPos="4.10" departSpeed="0.00" departDelay="7.00" arrival="83.40" arrivalLane="D3E3_0" arrivalPos="79.20" arrivalSpeed="12.03" duration="72.40" routeLength="375.10" waitingTime="27.20" waitingCount="1" stopTime="0.00" timeLoss="41.42" rerouteNo="0" devices="tripinfo_flow1.4" vType="vtypeauto" speedFactor="0.87" vaporized=""/>
    <tripinfo id="flow1.6" depart="16.60" departLane="A3B3_0" departPos="4.10" departSpeed="0.00" departDelay="10.60" arrival="83.60" arrivalLane="D3E3_1" arrivalPos="79.20" arrivalSpeed="16.29" duration="67.00" routeLength="375.10" waitingTime="26.10" waitingCount="1" stopTime="0.00" timeLoss="44.02" rerouteNo="0" devices="tripinfo_flow1.6" vType="vtypeauto" speedFactor="1.18" vaporized=""/>
    <tripinfo id="flow1.7" depart="19.40" departLane="A3B3_0" departPos="4.10" departSpeed="0.00" departDelay="12.40" arrival="84.90" arrivalLane="D3E3_0" arrivalPos="79.20" arrivalSpeed="14.37" duration="65.50" routeLength="375.10" waitingTime="24.70" waitingCount="1" stopTime="0.00" timeLoss="39.45" rerouteNo="0" devices="tripinfo_flow1.7" vType="vtypeauto" speedFactor="1.04" vaporized=""/>
    <tripinfo id="flow1.9" depart="25.00" departLane="A3B3_0" departPos="4.10" departSpeed="0.00" departDelay="16.00" arrival="85.40" arrivalLane="D3E3_1" arrivalPos="79.20" arrivalSpeed="13.82" duration="60.40" routeLength="375.10" waitingTime="15.40" waitingCount="2" stopTime="0.00" timeLoss="33.27" rerouteNo="0" devices="tripinfo_flow1.9" vType="vtypeauto" speedFactor="1.00" vaporized=""/>
    <tripinfo id="flow2.1" depart="2.80" departLane="A0A1_0" departPos="4.10" departSpeed="0.00" departDelay="1.80" arrival="86.20" arrivalLane="C3D3_1" arrivalPos="79.20" arrivalSpeed="12.99" duration="83.40" routeLength="540.89" waitingTime="9.70" waitingCount="2" stopTime="0.00" timeLoss="37.99" rerouteNo="0" devices="tripinfo_flow2.1" vType="vtypeauto" speedFactor="0.94" vaporized=""/>
    <tripinfo id="flow2.0" depart="0.00" departLane="A0A1_0" departPos="4.10" departSpeed="0.00" departDelay="0.00" arrival="86.30" arrivalLane="C3D3_0" arrivalPos="79.20" arrivalSpeed="12.70" duration="86.30" routeLength="540.89" waitingTime="20.60" waitingCount="2" stopTime="0.00" timeLoss="44.13" rerouteNo="0" devices="tripinfo_flow2.0" vType="vtypeauto" speedFactor="1.01" vaporized=""/>
    <tripinfo id="flow1.8" depart="22.20" departLane="A3B3_0" departPos="4.10" departSpeed="0.00" departDelay="14.20" arrival="86.80" arrivalLane="D3E3_0" arrivalPos="79.20" arrivalSpeed="11.71" duration="64.60" routeLength="375.10" waitingTime="16.90" waitingCount="2" stopTime="0.00" timeLoss="32.78" rerouteNo="0" devices="tripinfo_flow1.8" vType="vtypeauto" speedFactor="0.85" vaporized=""/>
    <tripinfo id="flow1.11" depart="30.60" departLane="A3B3_0" departPos="4.10" departSpeed="0.00" departDelay="19.60" arrival="87.40" arrivalLane="D3E3_1" arrivalPos="79.20" arrivalSpeed="12.63" duration="56.80" routeLength="375.10" waitingTime="8.30" waitingCount="1" stopTime="0.00" timeLoss="27.22" rerouteNo="0" devices="tripinfo_flow1.11" vType="vtypeauto" speedFactor="0.91" vaporized=""/>
    <tripinfo id="flow1.10" depart="27.80" departLane="A3B3_0" departPos="4.10" departSpeed="0.00" departDelay="17.80" arrival="88.30" arrivalLane="D3E3_0" arrivalPos="79.20" arrivalSpeed="14.56" duration="60.50" routeLength="375.10" waitingTime="9.00" waitingCount="2" stopTime="0.00" timeLoss="36.31" rerouteNo="0" devices="tripinfo_flow1.10" vType="vtypeauto" speedFactor="1.12" vaporized=""/>
    <tripinfo id="flow1.13" depart="36.20" departLane="A3B3_0" departPos="4.10" departSpeed="0.00" departDelay="23.20" arrival="88.90" arrivalLane="D3E3_1" arrivalPos="79.20" arrivalSpeed="15.08" duration="52.70" routeLength="375.10" waitingTime="7.10" waitingCount="1" stopTime="0.00" timeLoss="27.78" rerouteNo="0" devices="tripinfo_flow1.13" vType="vtypeauto" speedFactor="1.09" vaporized=""/>
    <tripinfo id="flow1.12" depart="33.40" departLane="A3B3_0" departPos="4.10" departSpeed="0.00" departDelay="21.40" arrival="89.70" arrivalLane="D3E3_0" arrivalPos="79.20" arrivalSpeed="14.56" duration="56.30" routeLength="375.10" waitingTime="7.00" waitingCount="1" stopTime="0.00" timeLoss="30.67" rerouteNo="0" devices="tripinfo_flow1.12" vType="vtypeauto" speedFactor="1.06" vaporized=""/>
    <tripinfo id="flow1.15" depart="41.70" departLane="A3B3_0" departPos="4.10" departSpeed="0.00" departDelay="26.70" arrival="90.70" arrivalLane="D3E3_1" arrivalPos="79.20" arrivalSpeed="12.29" duration="49.00" routeLength="375.10" waitingTime="4.90" waitingCount="1" stopTime="0.00" timeLoss="18.70" rerouteNo="0" devices="tripinfo_flow1.15" vType="vtypeauto" speedFactor="0.89" vaporized=""/>
    <tripinfo id="flow1.14" depart="38.90" departLane="A3B3_0" departPos="4.10" departSpeed="0.00" departDelay="24.90" arrival="91.30" arrivalLane="D3E3_0" arrivalPos="79.20" arrivalSpeed="13.50" duration="52.40" routeLength="375.10" waitingTime="5.90" waitingCount="1" stopTime="0.00" timeLoss="24.67" rerouteNo="0" devices="tripinfo_flow1.14" vType="vtypeauto" speedFactor="0.98" vaporized=""/>
    <tripinfo id="flow1.17" depart="47.20" departLane="A3B3_0" departPos="4.10" departSpeed="0.00" departDelay="30.20" arrival="92.30" arrivalLane="D3E3_1" arrivalPos="79.20" arrivalSpeed="13.22" duration="45.10" routeLength="375.10" waitingTime="1.40" waitingCount="1" stopTime="0.00" timeLoss="16.69" rerouteNo="0" devices="tripinfo_flow1.17" vType="vtypeauto" speedFactor="0.95" vaporized=""/>
    <tripinfo id="flow1.16" depart="44.40" departLane="A3B3_0" departPos="4.10" departSpeed="0.00" departDelay="28.40" arrival="93.10" arrivalLane="D3E3_0" arrivalPos="79.20" arrivalSpeed="12.53" duration="48.70" routeLength="375.10" waitingTime="4.00" waitingCount="1" stopTime="0.00" timeLoss="18.84" rerouteNo="0" devices="tripinfo_flow1.16" vType="vtypeauto" speedFactor="0.91" vaporized=""/>
    <tripinfo id="flow2.2" depart="5.60" departLane="A0A1_0" departPos="4.10" departSpeed="0.00" departDelay="3.60" arrival="97.70" arrivalLane="C3D3_0" arrivalPos="79.20" arrivalSpeed="13.77" duration="92.10" routeLength="540.89" waitingTime="15.80" waitingCount="2" stopTime="0.00" timeLoss="49.17" rerouteNo="0" devices="tripinfo_flow2.2" vType="vtypeauto" speedFactor="0.99" vaporized=""/>
    <tripinfo id="flow2.3" depart="8.40" departLane="A0A1_0" departPos="4.10" departSpeed="0.00" departDelay="5.40" arrival="100.40" arrivalLane="C3D3_0" arrivalPos="79.20" arrivalSpeed="14.07" duration="92.00" routeLength="540.89" waitingTime="9.80" waitingCount="3" stopTime="0.00" timeLoss="50.20" rerouteNo="0" devices="tripinfo_flow2.3" vType="vtypeauto" speedFactor="1.02" vaporized=""/>
    <tripinfo id="flow2.8" depart="22.40" departLane="A0A1_0" departPos="4.10" departSpeed="0.00" departDelay="14.40" arrival="103.90" arrivalLane="C3D3_0" arrivalPos="79.20" arrivalSpeed="11.79" duration="81.50" routeLength="540.89" waitingTime="8.80" waitingCount="4" stopTime="0.00" timeLoss="31.79" rerouteNo="0" devices="tripinfo_flow2.8" vType="vtypeauto" speedFactor="0.85" vaporized=""/>
    <tripinfo id="flow3.0" depart="0.00" departLane="C0C1_0" departPos="4.10" departSpeed="0.00" departDelay="0.00" arrival="117.10" arrivalLane="D4E4_0" arrivalPos="83.20" arrivalSpeed="14.94" duration="117.10" routeLength="1101.23" waitingTime="14.00" waitingCount="2" stopTime="0.00" timeLoss="36.68" rerouteNo="0" devices="tripinfo_flow3.0" vType="vtypeauto" speedFactor="1.08" vaporized=""/>
    <tripinfo id="flow2.4" depart="11.20" departLane="A0A1_0" departPos="4.10" departSpeed="0.00" departDelay="7.20" arrival="117.20" arrivalLane="C3D3_0" arrivalPos="79.20" arrivalSpeed="12.69" duration="106.00" routeLength="540.89" waitingTime="15.50" waitingCount="3" stopTime="0.00" timeLoss="59.61" rerouteNo="0" devices="tripinfo_flow2.4" vType="vtypeauto" speedFactor="0.92" vaporized=""/>
    <tripinfo id="flow2.10" depart="28.00" departLane="A0A1_0" departPos="4.10" departSpeed="0.00" departDelay="18.00" arrival="118.90" arrivalLane="C3D3_0" arrivalPos="79.20" arrivalSpeed="14.09" duration="90.90" routeLength="540.89" waitingTime="16.40" waitingCount="2" stopTime="0.00" timeLoss="48.98" rerouteNo="0" devices="tripinfo_flow2.10" vType="vtypeauto" speedFactor="1.02" vaporized=""/>
    <tripinfo id="flow1.19" depart="52.80" departLane="A3B3_0" departPos="4.10" departSpeed="0.00" departDelay="33.80" arrival="131.30" arrivalLane="D3E3_0" arrivalPos="79.20" arrivalSpeed="12.72" duration="78.50" routeLength="375.10" waitingTime="38.90" waitingCount="1" stopTime="0.00" timeLoss="49.18" rerouteNo="0" devices="tripinfo_flow1.19" vType="vtypeauto" speedFactor="0.92" vaporized=""/>
    <tripinfo id="flow1.18" depart="50.00" departLane="A3B3_0" departPos="4.10" departSpeed="0.00" departDelay="32.00" arrival="132.90" arrivalLane="D3E3_0" arrivalPos="79.20" arrivalSpeed="13.22" duration="82.90" routeLength="375.10" waitingTime="42.50" waitingCount="2" stopTime="0.00" timeLoss="54.71" rerouteNo="0" devices="tripinfo_flow1.18" vType="vtypeauto" speedFactor="0.96" vaporized=""/>
    <tripinfo id="flow1.20" depart="55.60" departLane="A3B3_0" departPos="4.10" departSpeed="0.00" departDelay="35.60" arrival="134.40" arrivalLane="D3E3_0" arrivalPos="79.20" arrivalSpeed="15.26" duration="78.80" routeLength="375.10" waitingTime="33.90" waitingCount="1" stopTime="0.00" timeLoss="54.24" rerouteNo="0" devices="tripinfo_flow1.20" vType="vtypeauto" speedFactor="1.10" vaporized=""/>
    <tripinfo id="flow1.21" depart="58.30" departLane="A3B3_0" departPos="4.10" departSpeed="0.00" departDelay="37.30" arrival="135.00" arrivalLane="D3E3_1" arrivalPos="79.20" arrivalSpeed="11.41" duration="76.70" routeLength="375.10" waitingTime="30.70" waitingCount="1" stopTime="0.00" timeLoss="43.86" rerouteNo="0" devices="tripinfo_flow1.21" vType="vtypeauto" speedFactor="0.82" vaporized=""/>
    <tripinfo id="flow1.22" depart="61.10" departLane="A3B3_0" departPos="4.10" departSpeed="0.00" departDelay="39.10" arrival="135.90" arrivalLane="D3E3_0" arrivalPos="79.20" arrivalSpeed="14.39" duration="74.80" routeLength="375.10" waitingTime="29.40" waitingCount="1" stopTime="0.00" timeLoss="48.71" rerouteNo="0" devices="tripinfo_flow1.22" vType="vtypeauto" speedFactor="1.04" vaporized=""/>
    <tripinfo id="flow1.23" depart="63.80" departLane="A3B3_0" departPos="4.10" departSpeed="0.00" departDelay="40.80" arrival="136.60" arrivalLane="D3E3_1" arrivalPos="79.20" arrivalSpeed="13.19" duration="72.80" routeLength="375.10" waitingTime="26.40" waitingCount="1" stopTime="0.00" timeLoss="44.42" rerouteNo="0" devices="tripinfo_flow1.23" vType="vtypeauto" speedFactor="0.95" vaporized=""/>
    <tripinfo id="flow1.24" depart="66.60" departLane="A3B3_0" departPos="4.10" departSpeed="0.00" departDelay="42.60" arrival="137.30" arrivalLane="D3E3_0" arrivalPos="79.20" arrivalSpeed="15.84" duration="70.70" routeLength="375.10" waitingTime="25.00" waitingCount="1" stopTime="0.00" timeLoss="47.01" rerouteNo="0" devices="tripinfo_flow1.24" vType="vtypeauto" speedFactor="1.14" vaporized=""/>
    <tripinfo id="flow3.1" depart="1.30" departLane="C0C1_0" departPos="4.10" departSpeed="0.00" departDelay="0.30" arrival="137.50" arrivalLane="D4E4_0" arrivalPos="83.20" arrivalSpeed="11.80" duration="136.20" routeLength="1101.23" waitingTime="6.40" waitingCount="3" stopTime="0.00" timeLoss="34.63" rerouteNo="0" devices="tripinfo_flow3.1" vType="vtypeauto" speedFactor="0.86" vaporized=""/>
    <tripinfo id="flow1.25" depart="69.40" departLane="A3B3_0" departPos="4.10" departSpeed="0.00" departDelay="44.40" arrival="138.10" arrivalLane="D3E3_1" arrivalPos="79.20" arrivalSpeed="13.89" duration="68.70" routeLength="375.10" waitingTime="22.30" waitingCount="1" stopTime="0.00" timeLoss="41.74" rerouteNo="0" devices="tripinfo_flow1.25" vType="vtypeauto" speedFactor="1.00" vaporized=""/>
    <tripinfo id="flow1.26" depart="72.20" departLane="A3B3_0" departPos="4.10" departSpeed="0.00" departDelay="46.20" arrival="138.80" arrivalLane="D3E3_0" arrivalPos="79.20" arrivalSpeed="14.91" duration="66.60" routeLength="375.10" waitingTime="20.90" waitingCount="1" stopTime="0.00" timeLoss="41.57" rerouteNo="0" devices="tripinfo_flow1.26" vType="vtypeauto" speedFactor="1.08" vaporized=""/>
    <tripinfo id="flow1.27" depart="75.00" departLane="A3B3_0" departPos="4.10" departSpeed="0.00" departDelay="48.00" arrival="139.50" arrivalLane="D3E3_1" arrivalPos="79.20" arrivalSpeed="15.60" duration="64.50" routeLength="375.10" waitingTime="18.10" waitingCount="1" stopTime="0.00" timeLoss="40.48" rerouteNo="0" devices="tripinfo_flow1.27" vType="vtypeauto" speedFactor="1.13" vaporized=""/>
    <tripinfo id="flow3.2" depart="3.20" departLane="C0C1_0" departPos="4.10" departSpeed="0.00" departDelay="1.20" arrival="139.60" arrivalLane="D4E4_0" arrivalPos="83.20" arrivalSpeed="12.81" duration="136.40" routeLength="1101.23" waitingTime="0.00" waitingCount="0" stopTime="0.00" timeLoss="42.33" rerouteNo="0" devices="tripinfo_flow3.2" vType="vtypeauto" speedFactor="0.93" vaporized=""/>
    <tripinfo id="flow1.28" depart="77.70" departLane="A3B3_0" departPos="4.10" departSpeed="0.00" departDelay="49.70" arrival="141.00" arrivalLane="D3E3_0" arrivalPos="79.20" arrivalSpeed="12.96" duration="63.30" routeLength="375.10" waitingTime="16.90" waitingCount="1" stopTime="0.00" timeLoss="34.51" rerouteNo="0" devices="tripinfo_flow1.28" vType="vtypeauto" speedFactor="0.94" vaporized=""/>
    <tripinfo id="flow1.29" depart="80.40" departLane="A3B3_0" departPos="4.10" departSpeed="0.00" departDelay="51.40" arrival="141.30" arrivalLane="D3E3_1" arrivalPos="79.20" arrivalSpeed="12.74" duration="60.90" routeLength="375.10" waitingTime="14.20" waitingCount="1" stopTime="0.00" timeLoss="31.52" rerouteNo="0" devices="tripinfo_flow1.29" vType="vtypeauto" speedFactor="0.92" vaporized=""/>
    <tripinfo id="flow1.30" depart="82.90" departLane="A3B3_0" departPos="4.10" departSpeed="0.00" departDelay="52.90" arrival="142.50" arrivalLane="D3E3_0" arrivalPos="79.20" arrivalSpeed="14.21" duration="59.60" routeLength="375.10" waitingTime="13.40" waitingCount="1" stopTime="0.00" timeLoss="33.23" rerouteNo="0" devices="tripinfo_flow1.30" vType="vtypeauto" speedFactor="1.03" vaporized=""/>
    <tripinfo id="flow1.31" depart="85.70" departLane="A3B3_0" departPos="4.10" departSpeed="0.00" departDelay="54.70" arrival="143.10" arrivalLane="D3E3_1" arrivalPos="79.20" arrivalSpeed="12.29" duration="57.40" routeLength="375.10" waitingTime="10.60" waitingCount="1" stopTime="0.00" timeLoss="27.04" rerouteNo="0" devices="tripinfo_flow1.31" vType="vtypeauto" speedFactor="0.89" vaporized=""/>
    <tripinfo id="flow1.32" depart="87.30" departLane="A3B3_0" departPos="4.10" departSpeed="0.00" departDelay="55.30" arrival="144.00" arrivalLane="D3E3_0" arrivalPos="79.20" arrivalSpeed="14.71" duration="56.70" routeLength="375.10" waitingTime="10.80" waitingCount="1" stopTime="0.00" timeLoss="31.34" rerouteNo="0" devices="tripinfo_flow1.32" vType="vtypeauto" speedFactor="1.07" vaporized=""/>
    <tripinfo id="flow1.33" depart="90.10" departLane="A3B3_0" departPos="4.10" departSpeed="0.00" departDelay="57.10" arrival="145.30" arrivalLane="D3E3_1" arrivalPos="79.20" arrivalSpeed="11.40" duration="55.20" routeLength="375.10" waitingTime="8.00" waitingCount="1" stopTime="0.00" timeLoss="22.52" rerouteNo="0" devices="tripinfo_flow1.33" vType="vtypeauto" speedFactor="0.83" vaporized=""/>
    <tripinfo id="flow1.34" depart="90.70" departLane="A3B3_0" departPos="4.10" departSpeed="0.00" departDelay="56.70" arrival="145.50" arrivalLane="D3E3_0" arrivalPos="79.20" arrivalSpeed="14.13" duration="54.80" routeLength="375.10" waitingTime="9.30" waitingCount="1" stopTime="0.00" timeLoss="28.38" rerouteNo="0" devices="tripinfo_flow1.34" vType="vtypeauto" speedFactor="1.02" vaporized=""/>
    <tripinfo id="flow1.35" depart="94.10" departLane="A3B3_0" departPos="4.10" departSpeed="0.00" departDelay="59.10" arrival="146.80" arrivalLane="D3E3_1" arrivalPos="79.20" arrivalSpeed="14.32" duration="52.70" routeLength="375.10" waitingTime="6.00" waitingCount="1" stopTime="0.00" timeLoss="26.61" rerouteNo="0" devices="tripinfo_flow1.35" vType="vtypeauto" speedFactor="1.04" vaporized=""/>
    <tripinfo id="flow1.37" depart="111.80" departLane="A3B3_0" departPos="4.10" departSpeed="0.00" departDelay="74.80" arrival="147.00" arrivalLane="D3E3_0" arrivalPos="79.20" arrivalSpeed="14.71" duration="35.20" routeLength="375.10" waitingTime="0.00" waitingCount="0" stopTime="0.00" timeLoss="9.83" rerouteNo="0" devices="tripinfo_flow1.37" vType="vtypeauto" speedFactor="1.06" vaporized=""/>
    <tripinfo id="flow1.36" depart="94.50" departLane="A3B3_0" departPos="4.10" departSpeed="0.00" departDelay="58.50" arrival="148.20" arrivalLane="D3E3_1" arrivalPos="79.20" arrivalSpeed="14.85" duration="53.70" routeLength="375.10" waitingTime="8.50" waitingCount="1" stopTime="0.00" timeLoss="28.46" rerouteNo="0" devices="tripinfo_flow1.36" vType="vtypeauto" speedFactor="1.07" vaporized=""/>
    <tripinfo id="flow1.39" depart="117.40" departLane="A3B3_0" departPos="4.10" departSpeed="0.00" departDelay="78.40" arrival="149.00" arrivalLane="D3E3_0" arrivalPos="79.20" arrivalSpeed="13.23" duration="31.60" routeLength="375.10" waitingTime="0.00" waitingCount="0" stopTime="0.00" timeLoss="3.40" rerouteNo="0" devices="tripinfo_flow1.39" vType="vtypeauto" speedFactor="0.96" vaporized=""/>
    <tripinfo id="flow1.38" depart="114.60" departLane="A3B3_0" departPos="4.10" departSpeed="0.00" departDelay="76.60" arrival="149.80" arrivalLane="D3E3_1" arrivalPos="79.20" arrivalSpeed="13.70" duration="35.20" routeLength="375.10" waitingTime="0.00" waitingCount="0" stopTime="0.00" timeLoss="8.00" rerouteNo="0" devices="tripinfo_flow1.38" vType="vtypeauto" speedFactor="0.99" vaporized=""/>
    <tripinfo id="flow1.40" depart="120.20" departLane="A3B3_0" departPos="4.10" departSpeed="0.00" departDelay="80.20" arrival="150.60" arrivalLane="D3E3_0" arrivalPos="79.20" arrivalSpeed="14.03" duration="30.40" routeLength="375.10" waitingTime="0.00" waitingCount="0" stopTime="0.00" timeLoss="3.73" rerouteNo="0" devices="tripinfo_flow1.40" vType="vtypeauto" speedFactor="1.01" vaporized=""/>
    <tripinfo id="flow4.0" depart="0.00" departLane="E2D2_0" departPos="4.10" departSpeed="0.00" departDelay="0.00" arrival="152.60" arrivalLane="B1A1_0" arrivalPos="79.20" arrivalSpeed="14.24" duration="152.60" routeLength="635.44" waitingTime="81.50" waitingCount="5" stopTime="0.00" timeLoss="104.06" rerouteNo="0" devices="tripinfo_flow4.0" vType="vtypeauto" speedFactor="1.03" vaporized=""/>
    <tripinfo id="flow1.41" depart="123.00" departLane="A3B3_0" departPos="4.10" departSpeed="0.00" departDelay="82.00" arrival="152.70" arrivalLane="D3E3_0" arrivalPos="79.20" arrivalSpeed="14.35" duration="29.70" routeLength="375.10" waitingTime="0.00" waitingCount="0" stopTime="0.00" timeLoss="3.69" rerouteNo="0" devices="tripinfo_flow1.41" vType="vtypeauto" speedFactor="1.04" vaporized=""/>
    <tripinfo id="flow2.5" depart="14.00" departLane="A0A1_0" departPos="4.10" departSpeed="0.00" departDelay="9.00" arrival="156.90" arrivalLane="C3D3_0" arrivalPos="79.20" arrivalSpeed="13.93" duration="142.90" routeLength="540.89" waitingTime="48.30" waitingCount="3" stopTime="0.00" timeLoss="100.58" rerouteNo="0" devices="tripinfo_flow2.5" vType="vtypeauto" speedFactor="1.01" vaporized=""/>
    <tripinfo id="flow1.42" depart="125.80" departLane="A3B3_0" departPos="4.10" departSpeed="0.00" departDelay="83.80" arrival="156.90" arrivalLane="D3E3_0" arrivalPos="79.20" arrivalSpeed="13.49" duration="31.10" routeLength="375.10" waitingTime="0.00" waitingCount="0" stopTime="0.00" timeLoss="3.45" rerouteNo="0" devices="tripinfo_flow1.42" vType="vtypeauto" speedFactor="0.98" vaporized=""/>
    <tripinfo id="flow2.11" depart="30.80" departLane="A0A1_0" departPos="4.10" departSpeed="0.00" departDelay="19.80" arrival="158.60" arrivalLane="C3D3_0" arrivalPos="79.20" arrivalSpeed="14.41" duration="127.80" routeLength="540.89" waitingTime="49.60" waitingCount="3" stopTime="0.00" timeLoss="86.89" rerouteNo="0" devices="tripinfo_flow2.11" vType="vtypeauto" speedFactor="1.04" vaporized=""/>
    <tripinfo id="flow2.6" depart="16.80" departLane="A0A1_0" departPos="4.10" departSpeed="0.00" departDelay="10.80" arrival="160.40" arrivalLane="C3D3_0" arrivalPos="79.20" arrivalSpeed="15.30" duration="143.60" routeLength="540.89" waitingTime="46.60" waitingCount="3" stopTime="0.00" timeLoss="104.93" rerouteNo="0" devices="tripinfo_flow2.6" vType="vtypeauto" speedFactor="1.10" vaporized=""/>
    <tripinfo id="flow2.7" depart="19.60" departLane="A0A1_0" departPos="4.10" departSpeed="0.00" departDelay="12.60" arrival="162.60" arrivalLane="C3D3_0" arrivalPos="79.20" arrivalSpeed="14.48" duration="143.00" routeLength="540.89" waitingTime="43.80" waitingCount="4" stopTime="0.00" timeLoss="102.17" rerouteNo="0" devices="tripinfo_flow2.7" vType="vtypeauto" speedFactor="1.04" vaporized=""/>
    <tripinfo id="flow2.13" depart="36.50" departLane="A0A1_0" departPos="4.10" departSpeed="0.00" departDelay="23.50" arrival="164.80" arrivalLane="C3D3_0" arrivalPos="79.20" arrivalSpeed="14.33" duration="128.30" routeLength="540.89" waitingTime="50.40" waitingCount="2" stopTime="0.00" timeLoss="87.13" rerouteNo="0" devices="tripinfo_flow2.13" vType="vtypeauto" speedFactor="1.03" vaporized=""/>
    <tripinfo id="flow2.9" depart="25.20" departLane="A0A1_0" departPos="4.10" departSpeed="0.00" departDelay="16.20" arrival="167.80" arrivalLane="C3D3_0" arrivalPos="79.20" arrivalSpeed="12.46" duration="142.60" routeLength="540.89" waitingTime="51.20" waitingCount="4" stopTime="0.00" timeLoss="95.18" rerouteNo="0" devices="tripinfo_flow2.9" vType="vtypeauto" speedFactor="0.90" vaporized=""/>
    <tripinfo id="flow2.16" depart="45.00" departLane="A0A1_0" departPos="4.10" departSpeed="0.00" departDelay="29.00" arrival="169.30" arrivalLane="C3D3_0" arrivalPos="79.20" arrivalSpeed="15.54" duration="124.30" routeLength="540.89" waitingTime="37.40" waitingCount="3" stopTime="0.00" timeLoss="86.37" rerouteNo="0" devices="tripinfo_flow2.16" vType="vtypeauto" speedFactor="1.12" vaporized=""/>
    <tripinfo id="flow2.12" depart="33.60" departLane="A0A1_0" departPos="4.10" departSpeed="0.00" departDelay="21.60" arrival="172.10" arrivalLane="C3D3_0" arrivalPos="79.20" arrivalSpeed="13.18" duration="138.50" routeLength="540.89" waitingTime="49.40" waitingCount="3" stopTime="0.00" timeLoss="93.84" rerouteNo="0" devices="tripinfo_flow2.12" vType="vtypeauto" speedFactor="0.96" vaporized=""/>
    <tripinfo id="flow2.14" depart="39.40" departLane="A0A1_0" departPos="4.10" departSpeed="0.00" departDelay="25.40" arrival="174.00" arrivalLane="C3D3_0" arrivalPos="79.20" arrivalSpeed="13.89" duration="134.60" routeLength="540.89" waitingTime="47.10" waitingCount="2" stopTime="0.00" timeLoss="92.16" rerouteNo="0" devices="tripinfo_flow2.14" vType="vtypeauto" speedFactor="1.00" vaporized=""/>
    <tripinfo id="flow2.20" depart="56.20" departLane="A0A1_0" departPos="4.10" departSpeed="0.00" departDelay="36.20" arrival="176.20" arrivalLane="C3D3_0" arrivalPos="79.20" arrivalSpeed="14.27" duration="120.00" routeLength="540.89" waitingTime="34.50" waitingCount="3" stopTime="0.00" timeLoss="78.69" rerouteNo="0" devices="tripinfo_flow2.20" vType="vtypeauto" speedFactor="1.03" vaporized=""/>
    <tripinfo id="flow2.15" depart="42.20" departLane="A0A1_0" departPos="4.10" departSpeed="0.00" departDelay="27.20" arrival="179.90" arrivalLane="C3D3_0" arrivalPos="79.20" arrivalSpeed="11.48" duration="137.70" routeLength="540.89" waitingTime="44.10" waitingCount="4" stopTime="0.00" timeLoss="86.65" rerouteNo="0" devices="tripinfo_flow2.15" vType="vtypeauto" speedFactor="0.83" vaporized=""/>
    <tripinfo id="flow2.21" depart="59.00" departLane="A0A1_0" departPos="4.10" departSpeed="0.00" departDelay="38.00" arrival="181.40" arrivalLane="C3D3_0" arrivalPos="79.20" arrivalSpeed="14.24" duration="122.40" routeLength="540.89" waitingTime="31.10" waitingCount="4" stopTime="0.00" timeLoss="84.41" rerouteNo="0" devices="tripinfo_flow2.21" vType="vtypeauto" speedFactor="1.12" vaporized=""/>
    <tripinfo id="flow2.17" depart="47.80" departLane="A0A1_0" departPos="4.10" departSpeed="0.00" departDelay="30.80" arrival="183.90" arrivalLane="C3D3_0" arrivalPos="79.20" arrivalSpeed="12.41" duration="136.10" routeLength="540.89" waitingTime="31.30" waitingCount="4" stopTime="0.00" timeLoss="88.43" rerouteNo="0" devices="tripinfo_flow2.17" vType="vtypeauto" speedFactor="0.89" vaporized=""/>
    <tripinfo id="flow2.22" depart="61.80" departLane="A0A1_0" departPos="4.10" departSpeed="0.00" departDelay="39.80" arrival="185.40" arrivalLane="C3D3_0" arrivalPos="79.20" arrivalSpeed="15.46" duration="123.60" routeLength="540.89" waitingTime="35.90" waitingCount="9" stopTime="0.00" timeLoss="88.88" rerouteNo="0" devices="tripinfo_flow2.22" vType="vtypeauto" speedFactor="1.23" vaporized=""/>
    <tripinfo id="flow2.18" depart="50.60" departLane="A0A1_0" departPos="4.10" departSpeed="0.00" departDelay="32.60" arrival="188.20" arrivalLane="C3D3_0" arrivalPos="79.20" arrivalSpeed="12.80" duration="137.60" routeLength="540.89" waitingTime="30.60" waitingCount="7" stopTime="0.00" timeLoss="91.68" rerouteNo="0" devices="tripinfo_flow2.18" vType="vtypeauto" speedFactor="0.93" vaporized=""/>
    <tripinfo id="flow3.3" depart="5.20" departLane="C0C1_0" departPos="4.10" departSpeed="0.00" departDelay="2.20" arrival="190.60" arrivalLane="D4E4_0" arrivalPos="83.20" arrivalSpeed="13.94" duration="185.40" routeLength="1101.23" waitingTime="56.00" waitingCount="4" stopTime="0.00" timeLoss="99.13" rerouteNo="0" devices="tripinfo_flow3.3" vType="vtypeauto" speedFactor="1.01" vaporized=""/>
    <tripinfo id="flow2.24" depart="67.30" departLane="A0A1_0" departPos="4.10" departSpeed="0.00" departDelay="43.30" arrival="190.80" arrivalLane="C3D3_0" arrivalPos="79.20" arrivalSpeed="12.20" duration="123.50" routeLength="540.89" waitingTime="33.20" waitingCount="4" stopTime="0.00" timeLoss="75.61" rerouteNo="0" devices="tripinfo_flow2.24" vType="vtypeauto" speedFactor="0.89" vaporized=""/>
    <tripinfo id="flow2.25" depart="70.10" departLane="A0A1_0" departPos="4.10" departSpeed="0.00" departDelay="45.10" arrival="192.50" arrivalLane="C3D3_0" arrivalPos="79.20" arrivalSpeed="14.85" duration="122.40" routeLength="540.89" waitingTime="29.40" waitingCount="3" stopTime="0.00" timeLoss="82.61" rerouteNo="0" devices="tripinfo_flow2.25" vType="vtypeauto" speedFactor="1.07" vaporized=""/>