<?xml version="1.0" encoding="UTF-8"?>

<!-- generated on 2024-10-30 18:48:47 by Eclipse SUMO sumo Version 1.20.0
<configuration xmlns:xsi="http://www.w3.org/2001/XMLSchema-instance" xsi:noNamespaceSchemaLocation="http://sumo.dlr.de/xsd/sumoConfiguration.xsd">

    <input>
        <net-file value="./sim_cfg_grid_2_lanes/grid.net.xml"/>
        <route-files value="./sim_cfg_grid_2_lanes/3x0.16.rou.xml"/>
    </input>

    <output>
        <tripinfo-output value="./sim_cfg_grid_2_lanes/tripinfo-platooning_0.057.xml"/>
    </output>

    <time>
        <begin value="0"/>
        <end value="500"/>
        <step-length value="0.1"/>
    </time>

    <traci_server>
        <remote-port value="50023"/>
    </traci_server>

    <gui_only>
        <gui-settings-file value="./sim_cfg_grid_2_lanes/gui_settings.xml"/>
    </gui_only>

</configuration>
-->

<tripinfos xmlns:xsi="http://www.w3.org/2001/XMLSchema-instance" xsi:noNamespaceSchemaLocation="http://sumo.dlr.de/xsd/tripinfo_file.xsd">
    <tripinfo id="flow1.0" depart="0.00" departLane="A3B3_0" departPos="4.10" departSpeed="0.00" departDelay="0.00" arrival="50.90" arrivalLane="D3E3_0" arrivalPos="79.20" arrivalSpeed="12.99" duration="50.90" routeLength="375.10" waitingTime="10.80" waitingCount="2" stopTime="0.00" timeLoss="22.06" rerouteNo="0" devices="tripinfo_flow1.0" vType="vtypeauto" speedFactor="0.94" vaporized=""/>
    <tripinfo id="flow2.0" depart="0.00" departLane="A0A1_0" departPos="4.10" departSpeed="0.00" departDelay="0.00" arrival="59.70" arrivalLane="C3D3_0" arrivalPos="79.20" arrivalSpeed="12.65" duration="59.70" routeLength="540.89" waitingTime="5.70" waitingCount="1" stopTime="0.00" timeLoss="17.69" rerouteNo="0" devices="tripinfo_flow2.0" vType="vtypeauto" speedFactor="1.01" vaporized=""/>
    <tripinfo id="flow1.1" depart="6.00" departLane="A3B3_0" departPos="4.10" departSpeed="0.00" departDelay="0.00" arrival="66.70" arrivalLane="D3E3_0" arrivalPos="79.20" arrivalSpeed="14.26" duration="60.70" routeLength="375.10" waitingTime="16.70" waitingCount="3" stopTime="0.00" timeLoss="34.48" rerouteNo="0" devices="tripinfo_flow1.1" vType="vtypeauto" speedFactor="1.03" vaporized=""/>
    <tripinfo id="flow1.2" depart="12.00" departLane="A3B3_0" departPos="4.10" departSpeed="0.00" departDelay="0.00" arrival="67.00" arrivalLane="D3E3_0" arrivalPos="79.20" arrivalSpeed="12.21" duration="55.00" routeLength="375.10" waitingTime="9.40" waitingCount="3" stopTime="0.00" timeLoss="24.49" rerouteNo="0" devices="tripinfo_flow1.2" vType="vtypeauto" speedFactor="0.89" vaporized=""/>
    <tripinfo id="flow2.1" depart="6.00" departLane="A0A1_0" departPos="4.10" departSpeed="0.00" departDelay="0.00" arrival="68.00" arrivalLane="C3D3_0" arrivalPos="79.20" arrivalSpeed="11.50" duration="62.00" routeLength="540.89" waitingTime="0.00" waitingCount="0" stopTime="0.00" timeLoss="10.73" rerouteNo="0" devices="tripinfo_flow2.1" vType="vtypeauto" speedFactor="0.83" vaporized=""/>
    <tripinfo id="flow1.3" depart="18.00" departLane="A3B3_0" departPos="4.10" departSpeed="0.00" departDelay="0.00" arrival="68.50" arrivalLane="D3E3_1" arrivalPos="79.20" arrivalSpeed="15.08" duration="50.50" routeLength="375.10" waitingTime="0.00" waitingCount="0" stopTime="0.00" timeLoss="25.65" rerouteNo="0" devices="tripinfo_flow1.3" vType="vtypeauto" speedFactor="1.09" vaporized=""/>
    <tripinfo id="flow2.2" depart="12.00" departLane="A0A1_0" departPos="4.10" departSpeed="0.00" departDelay="0.00" arrival="70.40" arrivalLane="C3D3_0" arrivalPos="79.20" arrivalSpeed="12.93" duration="58.40" routeLength="540.89" waitingTime="0.00" waitingCount="0" stopTime="0.00" timeLoss="13.11" rerouteNo="0" devices="tripinfo_flow2.2" vType="vtypeauto" speedFactor="0.94" vaporized=""/>
    <tripinfo id="flow0.0" depart="0.00" departLane="B4B3_0" departPos="4.10" departSpeed="0.00" departDelay="0.00" arrival="72.50" arrivalLane="B3A3_1" arrivalPos="79.20" arrivalSpeed="14.71" duration="72.50" routeLength="570.75" waitingTime="11.30" waitingCount="3" stopTime="0.00" timeLoss="31.72" rerouteNo="0" devices="tripinfo_flow0.0" vType="vtypeauto" speedFactor="1.06" vaporized=""/>
    <tripinfo id="flow0.1" depart="6.00" departLane="B4B3_0" departPos="4.10" departSpeed="0.00" departDelay="0.00" arrival="74.00" arrivalLane="B3A3_1" arrivalPos="79.20" arrivalSpeed="14.99" duration="68.00" routeLength="570.75" waitingTime="0.00" waitingCount="0" stopTime="0.00" timeLoss="28.09" rerouteNo="0" devices="tripinfo_flow0.1" vType="vtypeauto" speedFactor="1.08" vaporized=""/>
    <tripinfo id="flow0.2" depart="12.00" departLane="B4B3_0" departPos="4.10" departSpeed="0.00" departDelay="0.00" arrival="75.50" arrivalLane="B3A3_1" arrivalPos="79.20" arrivalSpeed="14.43" duration="63.50" routeLength="570.75" waitingTime="0.00" waitingCount="0" stopTime="0.00" timeLoss="22.16" rerouteNo="0" devices="tripinfo_flow0.2" vType="vtypeauto" speedFactor="1.05" vaporized=""/>
    <tripinfo id="flow1.4" depart="24.00" departLane="A3B3_0" departPos="4.10" departSpeed="0.00" departDelay="0.00" arrival="82.90" arrivalLane="D3E3_0" arrivalPos="79.20" arrivalSpeed="15.56" duration="58.90" routeLength="375.10" waitingTime="21.00" waitingCount="2" stopTime="0.00" timeLoss="34.80" rerouteNo="0" devices="tripinfo_flow1.4" vType="vtypeauto" speedFactor="1.12" vaporized=""/>
    <tripinfo id="flow2.3" depart="18.00" departLane="A0A1_0" departPos="4.10" departSpeed="0.00" departDelay="0.00" arrival="83.60" arrivalLane="C3D3_0" arrivalPos="79.20" arrivalSpeed="14.18" duration="65.60" routeLength="540.89" waitingTime="9.20" waitingCount="2" stopTime="0.00" timeLoss="24.17" rerouteNo="0" devices="tripinfo_flow2.3" vType="vtypeauto" speedFactor="1.03" vaporized=""/>
    <tripinfo id="flow1.6" depart="36.00" departLane="A3B3_0" departPos="4.10" departSpeed="0.00" departDelay="0.00" arrival="84.40" arrivalLane="D3E3_0" arrivalPos="79.20" arrivalSpeed="16.00" duration="48.40" routeLength="375.10" waitingTime="6.40" waitingCount="1" stopTime="0.00" timeLoss="25.01" rerouteNo="0" devices="tripinfo_flow1.6" vType="vtypeauto" speedFactor="1.16" vaporized=""/>
    <tripinfo id="flow1.5" depart="30.00" departLane="A3B3_0" departPos="4.10" departSpeed="0.00" departDelay="0.00" arrival="85.60" arrivalLane="D3E3_1" arrivalPos="79.20" arrivalSpeed="12.11" duration="55.60" routeLength="375.10" waitingTime="13.40" waitingCount="2" stopTime="0.00" timeLoss="24.80" rerouteNo="0" devices="tripinfo_flow1.5" vType="vtypeauto" speedFactor="0.88" vaporized=""/>
    <tripinfo id="flow2.4" depart="24.00" departLane="A0A1_0" departPos="4.10" departSpeed="0.00" departDelay="0.00" arrival="87.50" arrivalLane="C3D3_0" arrivalPos="79.20" arrivalSpeed="13.65" duration="63.50" routeLength="540.89" waitingTime="0.00" waitingCount="0" stopTime="0.00" timeLoss="20.55" rerouteNo="0" devices="tripinfo_flow2.4" vType="vtypeauto" speedFactor="0.99" vaporized=""/>
    <tripinfo id="flow2.5" depart="30.00" departLane="A0A1_0" departPos="4.10" departSpeed="0.00" departDelay="0.00" arrival="91.80" arrivalLane="C3D3_0" arrivalPos="79.20" arrivalSpeed="13.05" duration="61.80" routeLength="540.89" waitingTime="0.00" waitingCount="0" stopTime="0.00" timeLoss="16.62" rerouteNo="0" devices="tripinfo_flow2.5" vType="vtypeauto" speedFactor="0.94" vaporized=""/>
    <tripinfo id="flow0.3" depart="18.00" departLane="B4B3_0" departPos="4.10" departSpeed="0.00" departDelay="0.00" arrival="96.20" arrivalLane="B3A3_1" arrivalPos="79.20" arrivalSpeed="11.89" duration="78.20" routeLength="570.75" waitingTime="12.00" waitingCount="2" stopTime="0.00" timeLoss="27.76" rerouteNo="0" devices="tripinfo_flow0.3" vType="vtypeauto" speedFactor="0.86" vaporized=""/>
    <tripinfo id="flow0.4" depart="24.00" departLane="B4B3_0" departPos="4.10" departSpeed="0.00" departDelay="0.00" arrival="97.70" arrivalLane="B3A3_1" arrivalPos="79.20" arrivalSpeed="14.45" duration="73.70" routeLength="570.75" waitingTime="1.80" waitingCount="1" stopTime="0.00" timeLoss="32.41" rerouteNo="0" devices="tripinfo_flow0.4" vType="vtypeauto" speedFactor="1.05" vaporized=""/>
    <tripinfo id="flow2.6" depart="36.00" departLane="A0A1_0" departPos="4.10" departSpeed="0.00" departDelay="0.00" arrival="114.90" arrivalLane="C3D3_1" arrivalPos="79.20" arrivalSpeed="12.31" duration="78.90" routeLength="540.89" waitingTime="17.10" waitingCount="3" stopTime="0.00" timeLoss="37.12" rerouteNo="0" devices="tripinfo_flow2.6" vType="vtypeauto" speedFactor="1.02" vaporized=""/>
    <tripinfo id="flow2.7" depart="42.00" departLane="A0A1_0" departPos="4.10" departSpeed="0.00" departDelay="0.00" arrival="116.00" arrivalLane="C3D3_0" arrivalPos="79.20" arrivalSpeed="12.10" duration="74.00" routeLength="540.89" waitingTime="0.90" waitingCount="1" stopTime="0.00" timeLoss="26.19" rerouteNo="0" devices="tripinfo_flow2.7" vType="vtypeauto" speedFactor="0.89" vaporized=""/>
    <tripinfo id="flow2.8" depart="48.00" departLane="A0A1_0" departPos="4.10" departSpeed="0.00" departDelay="0.00" arrival="117.60" arrivalLane="C3D3_0" arrivalPos="79.20" arrivalSpeed="12.66" duration="69.60" routeLength="540.89" waitingTime="0.00" waitingCount="0" stopTime="0.00" timeLoss="23.13" rerouteNo="0" devices="tripinfo_flow2.8" vType="vtypeauto" speedFactor="0.92" vaporized=""/>
    <tripinfo id="flow1.7" depart="42.00" departLane="A3B3_0" departPos="4.10" departSpeed="0.00" departDelay="0.00" arrival="117.70" arrivalLane="D3E3_0" arrivalPos="79.20" arrivalSpeed="13.46" duration="75.70" routeLength="375.10" waitingTime="32.00" waitingCount="3" stopTime="0.00" timeLoss="47.96" rerouteNo="0" devices="tripinfo_flow1.7" vType="vtypeauto" speedFactor="0.97" vaporized=""/>
    <tripinfo id="flow1.8" depart="48.00" departLane="A3B3_0" departPos="4.10" departSpeed="0.00" departDelay="0.00" arrival="118.30" arrivalLane="D3E3_1" arrivalPos="79.20" arrivalSpeed="12.07" duration="70.30" routeLength="375.10" waitingTime="24.30" waitingCount="3" stopTime="0.00" timeLoss="39.34" rerouteNo="0" devices="tripinfo_flow1.8" vType="vtypeauto" speedFactor="0.87" vaporized=""/>
    <tripinfo id="flow1.9" depart="54.00" departLane="A3B3_0" departPos="4.10" departSpeed="0.00" departDelay="0.00" arrival="119.20" arrivalLane="D3E3_0" arrivalPos="79.20" arrivalSpeed="15.69" duration="65.20" routeLength="375.10" waitingTime="13.20" waitingCount="2" stopTime="0.00" timeLoss="41.27" rerouteNo="0" devices="tripinfo_flow1.9" vType="vtypeauto" speedFactor="1.13" vaporized=""/>
    <tripinfo id="flow2.9" depart="54.00" departLane="A0A1_0" departPos="4.10" departSpeed="0.00" departDelay="0.00" arrival="119.50" arrivalLane="C3D3_0" arrivalPos="79.20" arrivalSpeed="12.83" duration="65.50" routeLength="540.89" waitingTime="5.90" waitingCount="1" stopTime="0.00" timeLoss="19.85" rerouteNo="0" devices="tripinfo_flow2.9" vType="vtypeauto" speedFactor="0.93" vaporized=""/>
    <tripinfo id="flow1.10" depart="60.00" departLane="A3B3_0" departPos="4.10" departSpeed="0.00" departDelay="0.00" arrival="119.80" arrivalLane="D3E3_1" arrivalPos="79.20" arrivalSpeed="14.61" duration="59.80" routeLength="375.10" waitingTime="10.90" waitingCount="2" stopTime="0.00" timeLoss="36.39" rerouteNo="0" devices="tripinfo_flow1.10" vType="vtypeauto" speedFactor="1.15" vaporized=""/>
    <tripinfo id="flow0.6" depart="36.00" departLane="B4B3_0" departPos="4.10" departSpeed="0.00" departDelay="0.00" arrival="120.50" arrivalLane="B3A3_1" arrivalPos="79.20" arrivalSpeed="12.92" duration="84.50" routeLength="570.75" waitingTime="17.10" waitingCount="4" stopTime="0.00" timeLoss="38.29" rerouteNo="0" devices="tripinfo_flow0.6" vType="vtypeauto" speedFactor="0.94" vaporized=""/>
    <tripinfo id="flow1.11" depart="66.00" departLane="A3B3_0" departPos="4.10" departSpeed="0.00" departDelay="0.00" arrival="120.80" arrivalLane="D3E3_0" arrivalPos="79.20" arrivalSpeed="13.81" duration="54.80" routeLength="375.10" waitingTime="6.10" waitingCount="1" stopTime="0.00" timeLoss="27.60" rerouteNo="0" devices="tripinfo_flow1.11" vType="vtypeauto" speedFactor="0.99" vaporized=""/>
    <tripinfo id="flow0.5" depart="30.00" departLane="B4B3_0" departPos="4.10" departSpeed="0.00" departDelay="0.00" arrival="121.00" arrivalLane="B3A3_0" arrivalPos="79.20" arrivalSpeed="12.80" duration="91.00" routeLength="570.75" waitingTime="15.20" waitingCount="1" stopTime="0.00" timeLoss="44.40" rerouteNo="0" devices="tripinfo_flow0.5" vType="vtypeauto" speedFactor="0.93" vaporized=""/>
    <tripinfo id="flow1.12" depart="72.00" departLane="A3B3_0" departPos="4.10" departSpeed="0.00" departDelay="0.00" arrival="121.20" arrivalLane="D3E3_1" arrivalPos="79.20" arrivalSpeed="16.29" duration="49.20" routeLength="375.10" waitingTime="0.10" waitingCount="1" stopTime="0.00" timeLoss="26.26" rerouteNo="0" devices="tripinfo_flow1.12" vType="vtypeauto" speedFactor="1.18" vaporized=""/>
    <tripinfo id="flow0.7" depart="42.00" departLane="B4B3_0" departPos="4.10" departSpeed="0.00" departDelay="0.00" arrival="122.00" arrivalLane="B3A3_1" arrivalPos="79.20" arrivalSpeed="14.03" duration="80.00" routeLength="570.75" waitingTime="3.00" waitingCount="1" stopTime="0.00" timeLoss="37.24" rerouteNo="0" devices="tripinfo_flow0.7" vType="vtypeauto" speedFactor="1.01" vaporized=""/>
    <tripinfo id="flow2.10" depart="60.00" departLane="A0A1_0" departPos="4.10" departSpeed="0.00" departDelay="0.00" arrival="122.10" arrivalLane="C3D3_0" arrivalPos="79.20" arrivalSpeed="13.85" duration="62.10" routeLength="540.89" waitingTime="0.00" waitingCount="0" stopTime="0.00" timeLoss="19.89" rerouteNo="0" devices="tripinfo_flow2.10" vType="vtypeauto" speedFactor="1.01" vaporized=""/>
    <tripinfo id="flow1.13" depart="78.00" departLane="A3B3_0" departPos="4.10" departSpeed="0.00" departDelay="0.00" arrival="122.30" arrivalLane="D3E3_0" arrivalPos="79.20" arrivalSpeed="14.22" duration="44.30" routeLength="375.10" waitingTime="0.00" waitingCount="0" stopTime="0.00" timeLoss="18.04" rerouteNo="0" devices="tripinfo_flow1.13" vType="vtypeauto" speedFactor="1.03" vaporized=""/>
    <tripinfo id="flow2.11" depart="66.00" departLane="A0A1_0" departPos="4.10" departSpeed="0.00" departDelay="0.00" arrival="124.40" arrivalLane="C3D3_0" arrivalPos="79.20" arrivalSpeed="14.16" duration="58.40" routeLength="540.89" waitingTime="0.00" waitingCount="0" stopTime="0.00" timeLoss="16.71" rerouteNo="0" devices="tripinfo_flow2.11" vType="vtypeauto" speedFactor="1.02" vaporized=""/>
    <tripinfo id="flow0.8" depart="48.00" departLane="B4B3_0" departPos="4.10" departSpeed="0.00" departDelay="0.00" arrival="127.50" arrivalLane="B3A3_1" arrivalPos="79.20" arrivalSpeed="11.37" duration="79.50" routeLength="570.75" waitingTime="1.10" waitingCount="1" stopTime="0.00" timeLoss="27.22" rerouteNo="0" devices="tripinfo_flow0.8" vType="vtypeauto" speedFactor="0.83" vaporized=""/>
    <tripinfo id="flow0.9" depart="54.00" departLane="B4B3_0" departPos="4.10" departSpeed="0.00" departDelay="0.00" arrival="129.10" arrivalLane="B3A3_1" arrivalPos="79.20" arrivalSpeed="13.07" duration="75.10" routeLength="570.75" waitingTime="13.50" waitingCount="2" stopTime="0.00" timeLoss="29.55" rerouteNo="0" devices="tripinfo_flow0.9" vType="vtypeauto" speedFactor="0.95" vaporized=""/>
    <tripinfo id="flow0.10" depart="60.00" departLane="B4B3_0" departPos="4.10" departSpeed="0.00" departDelay="0.00" arrival="130.60" arrivalLane="B3A3_1" arrivalPos="79.20" arrivalSpeed="16.29" duration="70.60" routeLength="570.75" waitingTime="1.40" waitingCount="1" stopTime="0.00" timeLoss="33.88" rerouteNo="0" devices="tripinfo_flow0.10" vType="vtypeauto" speedFactor="1.18" vaporized=""/>
    <tripinfo id="flow2.12" depart="72.00" departLane="A0A1_0" departPos="4.10" departSpeed="0.00" departDelay="0.00" arrival="143.50" arrivalLane="C3D3_0" arrivalPos="79.20" arrivalSpeed="7.94" duration="71.50" routeLength="540.89" waitingTime="11.90" waitingCount="2" stopTime="0.00" timeLoss="32.85" rerouteNo="0" devices="tripinfo_flow2.12" vType="vtypeauto" speedFactor="1.10" vaporized=""/>
    <tripinfo id="flow2.13" depart="78.00" departLane="A0A1_0" departPos="4.10" departSpeed="0.00" departDelay="0.00" arrival="145.20" arrivalLane="C3D3_0" arrivalPos="79.20" arrivalSpeed="11.32" duration="67.20" routeLength="540.89" waitingTime="0.00" waitingCount="0" stopTime="0.00" timeLoss="22.78" rerouteNo="0" devices="tripinfo_flow2.13" vType="vtypeauto" speedFactor="0.96" vaporized=""/>
    <tripinfo id="flow2.14" depart="84.00" departLane="A0A1_0" departPos="4.10" departSpeed="0.00" departDelay="0.00" arrival="146.80" arrivalLane="C3D3_0" arrivalPos="79.20" arrivalSpeed="14.42" duration="62.80" routeLength="540.89" waitingTime="0.00" waitingCount="0" stopTime="0.00" timeLoss="22.06" rerouteNo="0" devices="tripinfo_flow2.14" vType="vtypeauto" speedFactor="1.04" vaporized=""/>
    <tripinfo id="flow1.14" depart="84.00" departLane="A3B3_0" departPos="4.10" departSpeed="0.00" departDelay="0.00" arrival="148.50" arrivalLane="D3E3_0" arrivalPos="79.20" arrivalSpeed="14.40" duration="64.50" routeLength="375.10" waitingTime="23.20" waitingCount="2" stopTime="0.00" timeLoss="38.43" rerouteNo="0" devices="tripinfo_flow1.14" vType="vtypeauto" speedFactor="1.04" vaporized=""/>
    <tripinfo id="flow1.15" depart="90.00" departLane="A3B3_0" departPos="4.10" departSpeed="0.00" departDelay="0.00" arrival="148.70" arrivalLane="D3E3_0" arrivalPos="79.20" arrivalSpeed="13.74" duration="58.70" routeLength="375.10" waitingTime="17.10" waitingCount="2" stopTime="0.00" timeLoss="31.60" rerouteNo="0" devices="tripinfo_flow1.15" vType="vtypeauto" speedFactor="1.00" vaporized=""/>
    <tripinfo id="flow1.17" depart="102.00" departLane="A3B3_0" departPos="4.10" departSpeed="0.00" departDelay="0.00" arrival="150.20" arrivalLane="D3E3_1" arrivalPos="79.20" arrivalSpeed="14.11" duration="48.20" routeLength="375.10" waitingTime="3.30" waitingCount="1" stopTime="0.00" timeLoss="21.61" rerouteNo="0" devices="tripinfo_flow1.17" vType="vtypeauto" speedFactor="1.02" vaporized=""/>
    <tripinfo id="flow1.16" depart="96.00" departLane="A3B3_0" departPos="4.10" departSpeed="0.00" departDelay="0.00" arrival="150.90" arrivalLane="D3E3_0" arrivalPos="79.20" arrivalSpeed="11.76" duration="54.90" routeLength="375.10" waitingTime="3.40" waitingCount="2" stopTime="0.00" timeLoss="23.08" rerouteNo="0" devices="tripinfo_flow1.16" vType="vtypeauto" speedFactor="0.85" vaporized=""/>
    <tripinfo id="flow1.18" depart="108.00" departLane="A3B3_0" departPos="4.10" departSpeed="0.00" departDelay="0.00" arrival="151.80" arrivalLane="D3E3_1" arrivalPos="79.20" arrivalSpeed="13.76" duration="43.80" routeLength="375.10" waitingTime="1.40" waitingCount="1" stopTime="0.00" timeLoss="16.60" rerouteNo="0" devices="tripinfo_flow1.18" vType="vtypeauto" speedFactor="1.00" vaporized=""/>
    <tripinfo id="flow0.11" depart="66.00" departLane="B4B3_0" departPos="4.10" departSpeed="0.00" departDelay="0.00" arrival="152.50" arrivalLane="B3A3_1" arrivalPos="79.20" arrivalSpeed="16.19" duration="86.50" routeLength="570.75" waitingTime="17.00" waitingCount="3" stopTime="0.00" timeLoss="49.59" rerouteNo="0" devices="tripinfo_flow0.11" vType="vtypeauto" speedFactor="1.17" vaporized=""/>
    <tripinfo id="flow0.12" depart="72.00" departLane="B4B3_0" departPos="4.10" departSpeed="0.00" departDelay="0.00" arrival="154.50" arrivalLane="B3A3_1" arrivalPos="79.20" arrivalSpeed="13.47" duration="82.50" routeLength="570.75" waitingTime="9.50" waitingCount="1" stopTime="0.00" timeLoss="38.05" rerouteNo="0" devices="tripinfo_flow0.12" vType="vtypeauto" speedFactor="0.97" vaporized=""/>
    <tripinfo id="flow0.13" depart="78.00" departLane="B4B3_0" departPos="4.10" departSpeed="0.00" departDelay="0.00" arrival="158.10" arrivalLane="B3A3_1" arrivalPos="79.20" arrivalSpeed="12.42" duration="80.10" routeLength="570.75" waitingTime="4.70" waitingCount="1" stopTime="0.00" timeLoss="32.13" rerouteNo="0" devices="tripinfo_flow0.13" vType="vtypeauto" speedFactor="0.90" vaporized=""/>
    <tripinfo id="flow0.14" depart="84.00" departLane="B4B3_0" departPos="4.10" departSpeed="0.00" departDelay="0.00" arrival="159.60" arrivalLane="B3A3_1" arrivalPos="79.20" arrivalSpeed="15.16" duration="75.60" routeLength="570.75" waitingTime="0.00" waitingCount="0" stopTime="0.00" timeLoss="36.06" rerouteNo="0" devices="tripinfo_flow0.14" vType="vtypeauto" speedFactor="1.09" vaporized=""/>
    <tripinfo id="flow0.15" depart="90.00" departLane="B4B3_0" departPos="4.10" departSpeed="0.00" departDelay="0.00" arrival="161.10" arrivalLane="B3A3_1" arrivalPos="79.20" arrivalSpeed="15.11" duration="71.10" routeLength="570.75" waitingTime="0.00" waitingCount="0" stopTime="0.00" timeLoss="31.33" rerouteNo="0" devices="tripinfo_flow0.15" vType="vtypeauto" speedFactor="1.09" vaporized=""/>
    <tripinfo id="flow1.19" depart="114.00" departLane="A3B3_0" departPos="4.10" departSpeed="0.00" departDelay="0.00" arrival="167.80" arrivalLane="D3E3_0" arrivalPos="79.20" arrivalSpeed="14.12" duration="53.80" routeLength="375.10" waitingTime="19.30" waitingCount="1" stopTime="0.00" timeLoss="27.34" rerouteNo="0" devices="tripinfo_flow1.19" vType="vtypeauto" speedFactor="1.02" vaporized=""/>
    <tripinfo id="flow1.21" depart="126.00" departLane="A3B3_0" departPos="4.10" departSpeed="0.00" departDelay="0.00" arrival="168.40" arrivalLane="D3E3_1" arrivalPos="79.20" arrivalSpeed="12.91" duration="42.40" routeLength="375.10" waitingTime="5.70" waitingCount="1" stopTime="0.00" timeLoss="13.59" rerouteNo="0" devices="tripinfo_flow1.21" vType="vtypeauto" speedFactor="0.94" vaporized=""/>
    <tripinfo id="flow1.20" depart="120.00" departLane="A3B3_0" departPos="4.10" departSpeed="0.00" departDelay="0.00" arrival="169.20" arrivalLane="D3E3_0" arrivalPos="79.20" arrivalSpeed="15.42" duration="49.20" routeLength="375.10" waitingTime="12.20" waitingCount="1" stopTime="0.00" timeLoss="25.06" rerouteNo="0" devices="tripinfo_flow1.20" vType="vtypeauto" speedFactor="1.12" vaporized=""/>
    <tripinfo id="flow1.23" depart="138.00" departLane="A3B3_0" departPos="4.10" departSpeed="0.00" departDelay="0.00" arrival="169.90" arrivalLane="D3E3_1" arrivalPos="79.20" arrivalSpeed="14.19" duration="31.90" routeLength="375.10" waitingTime="0.00" waitingCount="0" stopTime="0.00" timeLoss="5.51" rerouteNo="0" devices="tripinfo_flow1.23" vType="vtypeauto" speedFactor="1.02" vaporized=""/>
    <tripinfo id="flow2.15" depart="90.00" departLane="A0A1_0" departPos="4.10" departSpeed="0.00" departDelay="0.00" arrival="170.40" arrivalLane="C3D3_0" arrivalPos="79.20" arrivalSpeed="12.45" duration="80.40" routeLength="540.89" waitingTime="16.10" waitingCount="4" stopTime="0.00" timeLoss="33.15" rerouteNo="0" devices="tripinfo_flow2.15" vType="vtypeauto" speedFactor="0.90" vaporized=""/>
    <tripinfo id="flow1.22" depart="132.00" departLane="A3B3_0" departPos="4.10" departSpeed="0.00" departDelay="0.00" arrival="172.00" arrivalLane="D3E3_0" arrivalPos="79.20" arrivalSpeed="12.61" duration="40.00" routeLength="375.10" waitingTime="0.00" waitingCount="0" stopTime="0.00" timeLoss="10.39" rerouteNo="0" devices="tripinfo_flow1.22" vType="vtypeauto" speedFactor="0.91" vaporized=""/>
    <tripinfo id="flow0.16" depart="96.00" departLane="B4B3_0" departPos="4.10" departSpeed="0.00" departDelay="0.00" arrival="181.90" arrivalLane="B3A3_1" arrivalPos="79.20" arrivalSpeed="12.17" duration="85.90" routeLength="570.75" waitingTime="11.90" waitingCount="2" stopTime="0.00" timeLoss="36.61" rerouteNo="0" devices="tripinfo_flow0.16" vType="vtypeauto" speedFactor="0.88" vaporized=""/>
    <tripinfo id="flow1.24" depart="144.00" departLane="A3B3_0" departPos="4.10" departSpeed="0.00" departDelay="0.00" arrival="185.50" arrivalLane="D3E3_0" arrivalPos="79.20" arrivalSpeed="14.60" duration="41.50" routeLength="375.10" waitingTime="7.40" waitingCount="1" stopTime="0.00" timeLoss="15.86" rerouteNo="0" devices="tripinfo_flow1.24" vType="vtypeauto" speedFactor="1.06" vaporized=""/>
    <tripinfo id="flow2.16" depart="96.00" departLane="A0A1_0" departPos="4.10" departSpeed="0.00" departDelay="0.00" arrival="186.30" arrivalLane="C3D3_0" arrivalPos="79.20" arrivalSpeed="11.87" duration="90.30" routeLength="540.89" waitingTime="10.20" waitingCount="1" stopTime="0.00" timeLoss="40.58" rerouteNo="0" devices="tripinfo_flow2.16" vType="vtypeauto" speedFactor="0.85" vaporized=""/>
    <tripinfo id="flow2.17" depart="102.00" departLane="A0A1_0" departPos="4.10" departSpeed="0.00" departDelay="0.00" arrival="187.80" arrivalLane="C3D3_0" arrivalPos="79.20" arrivalSpeed="15.16" duration="85.80" routeLength="540.89" waitingTime="15.00" waitingCount="3" stopTime="0.00" timeLoss="46.98" rerouteNo="0" devices="tripinfo_flow2.17" vType="vtypeauto" speedFactor="1.10" vaporized=""/>
    <tripinfo id="flow2.18" depart="108.00" departLane="A0A1_0" departPos="4.10" departSpeed="0.00" departDelay="0.00" arrival="190.70" arrivalLane="C3D3_0" arrivalPos="79.20" arrivalSpeed="12.41" duration="82.70" routeLength="540.89" waitingTime="5.70" waitingCount="1" stopTime="0.00" timeLoss="35.39" rerouteNo="0" devices="tripinfo_flow2.18" vType="vtypeauto" speedFactor="0.90" vaporized=""/>
    <tripinfo id="flow2.19" depart="114.00" departLane="A0A1_0" departPos="4.10" departSpeed="0.00" departDelay="0.00" arrival="192.90" arrivalLane="C3D3_0" arrivalPos="79.20" arrivalSpeed="13.43" duration="78.90" routeLength="540.89" waitingTime="0.00" waitingCount="0" stopTime="0.00" timeLoss="35.03" rerouteNo="0" devices="tripinfo_flow2.19" vType="vtypeauto" speedFactor="0.97" vaporized=""/>
    <tripinfo id="flow2.20" depart="120.00" departLane="A0A1_0" departPos="4.10" departSpeed="0.00" departDelay="0.00" arrival="195.50" arrivalLane="C3D3_0" arrivalPos="79.20" arrivalSpeed="13.99" duration="75.50" routeLength="540.89" waitingTime="0.10" waitingCount="1" stopTime="0.00" timeLoss="33.65" rerouteNo="0" devices="tripinfo_flow2.20" vType="vtypeauto" speedFactor="1.02" vaporized=""/>
    <tripinfo id="flow0.17" depart="102.00" departLane="B4B3_0" departPos="4.10" departSpeed="0.00" departDelay="0.00" arrival="200.30" arrivalLane="B3A3_1" arrivalPos="79.20" arrivalSpeed="16.16" duration="98.30" routeLength="570.75" waitingTime="26.60" waitingCount="4" stopTime="0.00" timeLoss="61.30" rerouteNo="0" devices="tripinfo_flow0.17" vType="vtypeauto" speedFactor="1.17" vaporized=""/>
    <tripinfo id="flow2.21" depart="126.00" departLane="A0A1_0" departPos="4.10" departSpeed="0.00" departDelay="0.00" arrival="200.90" arrivalLane="C3D3_0" arrivalPos="79.20" arrivalSpeed="12.20" duration="74.90" routeLength="540.89" waitingTime="11.70" waitingCount="2" stopTime="0.00" timeLoss="26.66" rerouteNo="0" devices="tripinfo_flow2.21" vType="vtypeauto" speedFactor="0.88" vaporized=""/>
    <tripinfo id="flow0.18" depart="108.00" departLane="B4B3_0" departPos="4.10" departSpeed="0.00" departDelay="0.00" arrival="202.10" arrivalLane="B3A3_1" arrivalPos="79.20" arrivalSpeed="13.82" duration="94.10" routeLength="570.75" waitingTime="10.60" waitingCount="2" stopTime="0.00" timeLoss="51.00" rerouteNo="0" devices="tripinfo_flow0.18" vType="vtypeauto" speedFactor="1.00" vaporized=""/>
    <tripinfo id="flow2.22" depart="132.00" departLane="A0A1_0" departPos="4.10" departSpeed="0.00" departDelay="0.00" arrival="203.00" arrivalLane="C3D3_0" arrivalPos="79.20" arrivalSpeed="14.40" duration="71.00" routeLength="540.89" waitingTime="2.00" waitingCount="1" stopTime="0.00" timeLoss="30.19" rerouteNo="0" devices="tripinfo_flow2.22" vType="vtypeauto" speedFactor="1.04" vaporized=""/>
    <tripinfo id="flow0.19" depart="114.00" departLane="B4B3_0" departPos="4.10" departSpeed="0.00" departDelay="0.00" arrival="203.50" arrivalLane="B3A3_1" arrivalPos="79.20" arrivalSpeed="15.85" duration="89.50" routeLength="570.75" waitingTime="3.40" waitingCount="1" stopTime="0.00" timeLoss="51.68" rerouteNo="0" devices="tripinfo_flow0.19" vType="vtypeauto" speedFactor="1.14" vaporized=""/>
    <tripinfo id="flow0.20" depart="120.00" departLane="B4B3_0" departPos="4.10" departSpeed="0.00" departDelay="0.00" arrival="205.00" arrivalLane="B3A3_1" arrivalPos="79.20" arrivalSpeed="14.96" duration="85.00" routeLength="570.75" waitingTime="0.00" waitingCount="0" stopTime="0.00" timeLoss="45.07" rerouteNo="0" devices="tripinfo_flow0.20" vType="vtypeauto" speedFactor="1.08" vaporized=""/>
    <tripinfo id="flow2.23" depart="138.00" departLane="A0A1_0" departPos="4.10" departSpeed="0.00" departDelay="0.00" arrival="207.30" arrivalLane="C3D3_0" arrivalPos="79.20" arrivalSpeed="13.50" duration="69.30" routeLength="540.89" waitingTime="0.80" waitingCount="1" stopTime="0.00" timeLoss="25.60" rerouteNo="0" devices="tripinfo_flow2.23" vType="vtypeauto" speedFactor="0.97" vaporized=""/>
    <tripinfo id="flow2.24" depart="144.00" departLane="A0A1_0" departPos="4.10" departSpeed="0.00" departDelay="0.00" arrival="210.10" arrivalLane="C3D3_0" arrivalPos="79.20" arrivalSpeed="13.15" duration="66.10" routeLength="540.89" waitingTime="6.10" waitingCount="1" stopTime="0.00" timeLoss="21.52" rerouteNo="0" devices="tripinfo_flow2.24" vType="vtypeauto" speedFactor="0.96" vaporized=""/>
    <tripinfo id="flow2.25" depart="150.00" departLane="A0A1_0" departPos="4.10" departSpeed="0.00" departDelay="0.00" arrival="213.00" arrivalLane="C3D3_0" arrivalPos="79.20" arrivalSpeed="13.52" duration="63.00" routeLength="540.89" waitingTime="0.00" waitingCount="0" stopTime="0.00" timeLoss="19.72" rerouteNo="0" devices="tripinfo_flow2.25" vType="vtypeauto" speedFactor="0.98" vaporized=""/>
    <tripinfo id="flow2.26" depart="156.00" departLane="A0A1_0" departPos="4.10" departSpeed="0.00" departDelay="0.00" arrival="215.20" arrivalLane="C3D3_0" arrivalPos="79.20" arrivalSpeed="14.34" duration="59.20" routeLength="540.89" waitingTime="0.00" waitingCount="0" stopTime="0.00" timeLoss="18.09" rerouteNo="0" devices="tripinfo_flow2.26" vType="vtypeauto" speedFactor="1.03" vaporized=""/>