<?xml version="1.0" encoding="UTF-8"?>

<!-- generated on 2024-10-30 18:57:08 by Eclipse SUMO sumo Version 1.20.0
<configuration xmlns:xsi="http://www.w3.org/2001/XMLSchema-instance" xsi:noNamespaceSchemaLocation="http://sumo.dlr.de/xsd/sumoConfiguration.xsd">

    <input>
        <net-file value="./sim_cfg_grid_2_lanes/grid.net.xml"/>
        <route-files value="./sim_cfg_grid_2_lanes/7x1.rou.xml"/>
    </input>

    <output>
        <tripinfo-output value="./sim_cfg_grid_2_lanes/tripinfo-platooning_0.685.xml"/>
    </output>

    <time>
        <begin value="0"/>
        <end value="500"/>
        <step-length value="0.1"/>
    </time>

    <traci_server>
        <remote-port value="50058"/>
    </traci_server>

    <gui_only>
        <gui-settings-file value="./sim_cfg_grid_2_lanes/gui_settings.xml"/>
    </gui_only>

</configuration>
-->

<tripinfos xmlns:xsi="http://www.w3.org/2001/XMLSchema-instance" xsi:noNamespaceSchemaLocation="http://sumo.dlr.de/xsd/tripinfo_file.xsd">
    <tripinfo id="flow1.2" depart="5.40" departLane="A3B3_0" departPos="4.10" departSpeed="0.00" departDelay="3.40" arrival="79.30" arrivalLane="D3E3_1" arrivalPos="79.20" arrivalSpeed="15.55" duration="73.90" routeLength="375.10" waitingTime="35.20" waitingCount="2" stopTime="0.00" timeLoss="49.83" rerouteNo="0" devices="tripinfo_flow1.2" vType="vtypeauto" speedFactor="1.12" vaporized=""/>
    <tripinfo id="flow2.0" depart="0.00" departLane="A0A1_0" departPos="4.10" departSpeed="0.00" departDelay="0.00" arrival="80.70" arrivalLane="C3D3_0" arrivalPos="79.20" arrivalSpeed="12.93" duration="80.70" routeLength="540.89" waitingTime="20.60" waitingCount="2" stopTime="0.00" timeLoss="38.52" rerouteNo="0" devices="tripinfo_flow2.0" vType="vtypeauto" speedFactor="1.01" vaporized=""/>
    <tripinfo id="flow1.3" depart="8.20" departLane="A3B3_0" departPos="4.10" departSpeed="0.00" departDelay="5.20" arrival="80.70" arrivalLane="D3E3_1" arrivalPos="79.20" arrivalSpeed="15.99" duration="72.50" routeLength="375.10" waitingTime="29.20" waitingCount="1" stopTime="0.00" timeLoss="49.18" rerouteNo="0" devices="tripinfo_flow1.3" vType="vtypeauto" speedFactor="1.16" vaporized=""/>
    <tripinfo id="flow1.0" depart="0.00" departLane="A3B3_0" departPos="4.10" departSpeed="0.00" departDelay="0.00" arrival="80.80" arrivalLane="D3E3_0" arrivalPos="79.20" arrivalSpeed="12.70" duration="80.80" routeLength="375.10" waitingTime="39.70" waitingCount="2" stopTime="0.00" timeLoss="51.98" rerouteNo="0" devices="tripinfo_flow1.0" vType="vtypeauto" speedFactor="0.94" vaporized=""/>
    <tripinfo id="flow1.1" depart="2.70" departLane="A3B3_0" departPos="4.10" departSpeed="0.00" departDelay="1.70" arrival="81.90" arrivalLane="D3E3_0" arrivalPos="79.20" arrivalSpeed="12.57" duration="79.20" routeLength="375.10" waitingTime="29.50" waitingCount="2" stopTime="0.00" timeLoss="49.77" rerouteNo="0" devices="tripinfo_flow1.1" vType="vtypeauto@flow1.1" speedFactor="1.01" vaporized=""/>
    <tripinfo id="flow2.1" depart="2.80" departLane="A0A1_0" departPos="4.10" departSpeed="0.00" departDelay="1.80" arrival="82.10" arrivalLane="C3D3_0" arrivalPos="79.20" arrivalSpeed="12.98" duration="79.30" routeLength="540.89" waitingTime="9.20" waitingCount="1" stopTime="0.00" timeLoss="33.96" rerouteNo="0" devices="tripinfo_flow2.1" vType="vtypeauto" speedFactor="0.94" vaporized=""/>
    <tripinfo id="flow1.5" depart="13.80" departLane="A3B3_0" departPos="4.10" departSpeed="0.00" departDelay="8.80" arrival="82.20" arrivalLane="D3E3_1" arrivalPos="79.20" arrivalSpeed="16.03" duration="68.40" routeLength="375.10" waitingTime="27.40" waitingCount="1" stopTime="0.00" timeLoss="44.91" rerouteNo="0" devices="tripinfo_flow1.5" vType="vtypeauto" speedFactor="1.15" vaporized=""/>
    <tripinfo id="flow1.4" depart="11.00" departLane="A3B3_0" departPos="4.10" departSpeed="0.00" departDelay="7.00" arrival="83.00" arrivalLane="D3E3_0" arrivalPos="79.20" arrivalSpeed="12.68" duration="72.00" routeLength="375.10" waitingTime="26.80" waitingCount="1" stopTime="0.00" timeLoss="42.34" rerouteNo="0" devices="tripinfo_flow1.4" vType="vtypeauto@flow1.4" speedFactor="1.01" vaporized=""/>
    <tripinfo id="flow1.6" depart="16.60" departLane="A3B3_0" departPos="4.10" departSpeed="0.00" departDelay="10.60" arrival="83.50" arrivalLane="D3E3_1" arrivalPos="79.20" arrivalSpeed="16.29" duration="66.90" routeLength="375.10" waitingTime="26.10" waitingCount="1" stopTime="0.00" timeLoss="44.01" rerouteNo="0" devices="tripinfo_flow1.6" vType="vtypeauto" speedFactor="1.18" vaporized=""/>
    <tripinfo id="flow2.2" depart="5.60" departLane="A0A1_0" departPos="4.10" departSpeed="0.00" departDelay="3.60" arrival="83.60" arrivalLane="C3D3_0" arrivalPos="79.20" arrivalSpeed="13.72" duration="78.00" routeLength="540.89" waitingTime="5.60" waitingCount="1" stopTime="0.00" timeLoss="35.08" rerouteNo="0" devices="tripinfo_flow2.2" vType="vtypeauto" speedFactor="0.99" vaporized=""/>
    <tripinfo id="flow1.7" depart="19.40" departLane="A3B3_0" departPos="4.10" departSpeed="0.00" departDelay="12.40" arrival="84.10" arrivalLane="D3E3_0" arrivalPos="79.20" arrivalSpeed="13.22" duration="64.70" routeLength="375.10" waitingTime="23.90" waitingCount="1" stopTime="0.00" timeLoss="38.43" rerouteNo="0" devices="tripinfo_flow1.7" vType="vtypeauto@flow1.7" speedFactor="1.01" vaporized=""/>
    <tripinfo id="flow2.3" depart="8.40" departLane="A0A1_0" departPos="4.10" departSpeed="0.00" departDelay="5.40" arrival="85.20" arrivalLane="C3D3_0" arrivalPos="79.20" arrivalSpeed="14.09" duration="76.80" routeLength="540.89" waitingTime="2.40" waitingCount="1" stopTime="0.00" timeLoss="34.94" rerouteNo="0" devices="tripinfo_flow2.3" vType="vtypeauto" speedFactor="1.02" vaporized=""/>
    <tripinfo id="flow1.8" depart="22.20" departLane="A3B3_0" departPos="4.10" departSpeed="0.00" departDelay="14.20" arrival="85.30" arrivalLane="D3E3_0" arrivalPos="79.20" arrivalSpeed="13.88" duration="63.10" routeLength="375.10" waitingTime="15.50" waitingCount="2" stopTime="0.00" timeLoss="33.02" rerouteNo="0" devices="tripinfo_flow1.8" vType="vtypeauto@flow1.8" speedFactor="1.01" vaporized=""/>
    <tripinfo id="flow1.9" depart="25.00" departLane="A3B3_0" departPos="4.10" departSpeed="0.00" departDelay="16.00" arrival="85.40" arrivalLane="D3E3_1" arrivalPos="79.20" arrivalSpeed="13.71" duration="60.40" routeLength="375.10" waitingTime="15.40" waitingCount="2" stopTime="0.00" timeLoss="33.27" rerouteNo="0" devices="tripinfo_flow1.9" vType="vtypeauto" speedFactor="1.00" vaporized=""/>
    <tripinfo id="flow1.10" depart="27.80" departLane="A3B3_0" departPos="4.10" departSpeed="0.00" departDelay="17.80" arrival="86.30" arrivalLane="D3E3_0" arrivalPos="79.20" arrivalSpeed="13.94" duration="58.50" routeLength="375.10" waitingTime="7.10" waitingCount="2" stopTime="0.00" timeLoss="33.37" rerouteNo="0" devices="tripinfo_flow1.10" vType="vtypeauto@flow1.10" speedFactor="1.01" vaporized=""/>
    <tripinfo id="flow1.11" depart="30.60" departLane="A3B3_0" departPos="4.10" departSpeed="0.00" departDelay="19.60" arrival="87.40" arrivalLane="D3E3_1" arrivalPos="79.20" arrivalSpeed="12.69" duration="56.80" routeLength="375.10" waitingTime="8.30" waitingCount="1" stopTime="0.00" timeLoss="27.22" rerouteNo="0" devices="tripinfo_flow1.11" vType="vtypeauto" speedFactor="0.91" vaporized=""/>
    <tripinfo id="flow1.12" depart="33.40" departLane="A3B3_0" departPos="4.10" departSpeed="0.00" departDelay="21.40" arrival="87.50" arrivalLane="D3E3_0" arrivalPos="79.20" arrivalSpeed="13.91" duration="54.10" routeLength="375.10" waitingTime="4.40" waitingCount="1" stopTime="0.00" timeLoss="27.95" rerouteNo="0" devices="tripinfo_flow1.12" vType="vtypeauto@flow1.12" speedFactor="1.01" vaporized=""/>
    <tripinfo id="flow2.4" depart="11.20" departLane="A0A1_0" departPos="4.10" departSpeed="0.00" departDelay="7.20" arrival="87.90" arrivalLane="C3D3_0" arrivalPos="79.20" arrivalSpeed="12.68" duration="76.70" routeLength="540.89" waitingTime="0.10" waitingCount="1" stopTime="0.00" timeLoss="30.35" rerouteNo="0" devices="tripinfo_flow2.4" vType="vtypeauto" speedFactor="0.92" vaporized=""/>
    <tripinfo id="flow1.14" depart="38.90" departLane="A3B3_0" departPos="4.10" departSpeed="0.00" departDelay="24.90" arrival="88.60" arrivalLane="D3E3_0" arrivalPos="79.20" arrivalSpeed="13.88" duration="49.70" routeLength="375.10" waitingTime="2.70" waitingCount="1" stopTime="0.00" timeLoss="22.34" rerouteNo="0" devices="tripinfo_flow1.14" vType="vtypeauto@flow1.14" speedFactor="1.01" vaporized=""/>
    <tripinfo id="flow1.13" depart="36.20" departLane="A3B3_0" departPos="4.10" departSpeed="0.00" departDelay="23.20" arrival="88.90" arrivalLane="D3E3_1" arrivalPos="79.20" arrivalSpeed="15.00" duration="52.70" routeLength="375.10" waitingTime="7.10" waitingCount="1" stopTime="0.00" timeLoss="27.79" rerouteNo="0" devices="tripinfo_flow1.13" vType="vtypeauto" speedFactor="1.09" vaporized=""/>
    <tripinfo id="flow2.5" depart="14.00" departLane="A0A1_0" departPos="4.10" departSpeed="0.00" departDelay="9.00" arrival="89.60" arrivalLane="C3D3_0" arrivalPos="79.20" arrivalSpeed="13.88" duration="75.60" routeLength="540.89" waitingTime="0.00" waitingCount="0" stopTime="0.00" timeLoss="33.32" rerouteNo="0" devices="tripinfo_flow2.5" vType="vtypeauto" speedFactor="1.01" vaporized=""/>
    <tripinfo id="flow1.16" depart="44.40" departLane="A3B3_0" departPos="4.10" departSpeed="0.00" departDelay="28.40" arrival="90.20" arrivalLane="D3E3_0" arrivalPos="79.20" arrivalSpeed="12.57" duration="45.80" routeLength="375.10" waitingTime="0.30" waitingCount="1" stopTime="0.00" timeLoss="15.94" rerouteNo="0" devices="tripinfo_flow1.16" vType="vtypeauto" speedFactor="0.91" vaporized=""/>
    <tripinfo id="flow1.15" depart="41.70" departLane="A3B3_0" departPos="4.10" departSpeed="0.00" departDelay="26.70" arrival="90.70" arrivalLane="D3E3_1" arrivalPos="79.20" arrivalSpeed="12.32" duration="49.00" routeLength="375.10" waitingTime="4.90" waitingCount="1" stopTime="0.00" timeLoss="18.70" rerouteNo="0" devices="tripinfo_flow1.15" vType="vtypeauto" speedFactor="0.89" vaporized=""/>
    <tripinfo id="flow1.17" depart="47.20" departLane="A3B3_0" departPos="4.10" departSpeed="0.00" departDelay="30.20" arrival="92.30" arrivalLane="D3E3_1" arrivalPos="79.20" arrivalSpeed="13.13" duration="45.10" routeLength="375.10" waitingTime="1.40" waitingCount="1" stopTime="0.00" timeLoss="16.69" rerouteNo="0" devices="tripinfo_flow1.17" vType="vtypeauto" speedFactor="0.95" vaporized=""/>
    <tripinfo id="flow2.8" depart="22.40" departLane="A0A1_0" departPos="4.10" departSpeed="0.00" departDelay="14.40" arrival="92.60" arrivalLane="C3D3_0" arrivalPos="79.20" arrivalSpeed="11.82" duration="70.20" routeLength="540.89" waitingTime="0.00" waitingCount="0" stopTime="0.00" timeLoss="20.40" rerouteNo="0" devices="tripinfo_flow2.8" vType="vtypeauto" speedFactor="0.85" vaporized=""/>
    <tripinfo id="flow2.6" depart="16.80" departLane="A0A1_0" departPos="4.10" departSpeed="0.00" departDelay="10.80" arrival="94.10" arrivalLane="C3D3_0" arrivalPos="79.20" arrivalSpeed="14.85" duration="77.30" routeLength="540.89" waitingTime="0.00" waitingCount="0" stopTime="0.00" timeLoss="38.65" rerouteNo="0" devices="tripinfo_flow2.6" vType="vtypeauto" speedFactor="1.10" vaporized=""/>
    <tripinfo id="flow2.7" depart="19.60" departLane="A0A1_0" departPos="4.10" departSpeed="0.00" departDelay="12.60" arrival="95.80" arrivalLane="C3D3_0" arrivalPos="79.20" arrivalSpeed="14.39" duration="76.20" routeLength="540.89" waitingTime="0.00" waitingCount="0" stopTime="0.00" timeLoss="35.36" rerouteNo="0" devices="tripinfo_flow2.7" vType="vtypeauto" speedFactor="1.04" vaporized=""/>
    <tripinfo id="flow5.1" depart="2.80" departLane="D4D3_0" departPos="4.10" departSpeed="0.00" departDelay="1.80" arrival="98.60" arrivalLane="D1D0_0" arrivalPos="79.20" arrivalSpeed="14.14" duration="95.80" routeLength="375.10" waitingTime="55.80" waitingCount="2" stopTime="0.00" timeLoss="69.45" rerouteNo="0" devices="tripinfo_flow5.1" vType="vtypeauto" speedFactor="1.03" vaporized=""/>
    <tripinfo id="flow2.9" depart="25.20" departLane="A0A1_0" departPos="4.10" departSpeed="0.00" departDelay="16.20" arrival="98.80" arrivalLane="C3D3_0" arrivalPos="79.20" arrivalSpeed="12.40" duration="73.60" routeLength="540.89" waitingTime="0.00" waitingCount="0" stopTime="0.00" timeLoss="26.25" rerouteNo="0" devices="tripinfo_flow2.9" vType="vtypeauto" speedFactor="0.90" vaporized=""/>
    <tripinfo id="flow2.10" depart="28.00" departLane="A0A1_0" departPos="4.10" departSpeed="0.00" departDelay="18.00" arrival="100.50" arrivalLane="C3D3_0" arrivalPos="79.20" arrivalSpeed="14.03" duration="72.50" routeLength="540.89" waitingTime="0.00" waitingCount="0" stopTime="0.00" timeLoss="30.50" rerouteNo="0" devices="tripinfo_flow2.10" vType="vtypeauto" speedFactor="1.02" vaporized=""/>
    <tripinfo id="flow5.3" depart="8.40" departLane="D4D3_0" departPos="4.10" departSpeed="0.00" departDelay="5.40" arrival="101.60" arrivalLane="D1D0_1" arrivalPos="79.20" arrivalSpeed="12.25" duration="93.20" routeLength="375.10" waitingTime="48.30" waitingCount="1" stopTime="0.00" timeLoss="62.82" rerouteNo="0" devices="tripinfo_flow5.3" vType="vtypeauto" speedFactor="0.89" vaporized=""/>
    <tripinfo id="flow2.11" depart="30.80" departLane="A0A1_0" departPos="4.10" departSpeed="0.00" departDelay="19.80" arrival="102.50" arrivalLane="C3D3_0" arrivalPos="79.20" arrivalSpeed="14.40" duration="71.70" routeLength="540.89" waitingTime="0.00" waitingCount="0" stopTime="0.00" timeLoss="30.78" rerouteNo="0" devices="tripinfo_flow2.11" vType="vtypeauto" speedFactor="1.04" vaporized=""/>
    <tripinfo id="flow5.5" depart="13.90" departLane="D4D3_0" departPos="4.10" departSpeed="0.00" departDelay="8.90" arrival="103.10" arrivalLane="D1D0_1" arrivalPos="79.20" arrivalSpeed="14.07" duration="89.20" routeLength="375.10" waitingTime="46.40" waitingCount="1" stopTime="0.00" timeLoss="62.70" rerouteNo="0" devices="tripinfo_flow5.5" vType="vtypeauto" speedFactor="1.02" vaporized=""/>
    <tripinfo id="flow5.7" depart="19.50" departLane="D4D3_0" departPos="4.10" departSpeed="0.00" departDelay="12.50" arrival="104.90" arrivalLane="D1D0_1" arrivalPos="79.20" arrivalSpeed="12.41" duration="85.40" routeLength="375.10" waitingTime="42.00" waitingCount="1" stopTime="0.00" timeLoss="55.38" rerouteNo="0" devices="tripinfo_flow5.7" vType="vtypeauto" speedFactor="0.90" vaporized=""/>
    <tripinfo id="flow2.12" depart="33.60" departLane="A0A1_0" departPos="4.10" departSpeed="0.00" departDelay="21.60" arrival="105.10" arrivalLane="C3D3_0" arrivalPos="79.20" arrivalSpeed="13.21" duration="71.50" routeLength="540.89" waitingTime="0.00" waitingCount="0" stopTime="0.00" timeLoss="26.91" rerouteNo="0" devices="tripinfo_flow2.12" vType="vtypeauto" speedFactor="0.96" vaporized=""/>
    <tripinfo id="flow5.9" depart="25.10" departLane="D4D3_0" departPos="4.10" departSpeed="0.00" departDelay="16.10" arrival="106.50" arrivalLane="D1D0_1" arrivalPos="79.20" arrivalSpeed="13.46" duration="81.40" routeLength="375.10" waitingTime="38.10" waitingCount="1" stopTime="0.00" timeLoss="53.46" rerouteNo="0" devices="tripinfo_flow5.9" vType="vtypeauto" speedFactor="0.97" vaporized=""/>
    <tripinfo id="flow3.0" depart="0.00" departLane="C0C1_0" departPos="4.10" departSpeed="0.00" departDelay="0.00" arrival="106.90" arrivalLane="D4E4_0" arrivalPos="83.20" arrivalSpeed="14.94" duration="106.90" routeLength="1101.23" waitingTime="6.40" waitingCount="1" stopTime="0.00" timeLoss="26.50" rerouteNo="0" devices="tripinfo_flow3.0" vType="vtypeauto" speedFactor="1.08" vaporized=""/>
    <tripinfo id="flow2.13" depart="36.50" departLane="A0A1_0" departPos="4.10" departSpeed="0.00" departDelay="23.50" arrival="107.10" arrivalLane="C3D3_0" arrivalPos="79.20" arrivalSpeed="14.30" duration="70.60" routeLength="540.89" waitingTime="0.00" waitingCount="0" stopTime="0.00" timeLoss="29.45" rerouteNo="0" devices="tripinfo_flow2.13" vType="vtypeauto" speedFactor="1.03" vaporized=""/>
    <tripinfo id="flow5.11" depart="30.70" departLane="D4D3_0" departPos="4.10" departSpeed="0.00" departDelay="19.70" arrival="108.00" arrivalLane="D1D0_1" arrivalPos="79.20" arrivalSpeed="13.40" duration="77.30" routeLength="375.10" waitingTime="33.80" waitingCount="1" stopTime="0.00" timeLoss="49.52" rerouteNo="0" devices="tripinfo_flow5.11" vType="vtypeauto" speedFactor="0.97" vaporized=""/>
    <tripinfo id="flow5.0" depart="0.00" departLane="D4D3_0" departPos="4.10" departSpeed="0.00" departDelay="0.00" arrival="109.10" arrivalLane="D1D0_0" arrivalPos="79.20" arrivalSpeed="11.50" duration="109.10" routeLength="375.10" waitingTime="57.90" waitingCount="2" stopTime="0.00" timeLoss="76.56" rerouteNo="0" devices="tripinfo_flow5.0" vType="vtypeauto" speedFactor="0.83" vaporized=""/>
    <tripinfo id="flow5.13" depart="36.20" departLane="D4D3_0" departPos="4.10" departSpeed="0.00" departDelay="23.20" arrival="109.60" arrivalLane="D1D0_1" arrivalPos="79.20" arrivalSpeed="13.39" duration="73.40" routeLength="375.10" waitingTime="29.60" waitingCount="1" stopTime="0.00" timeLoss="45.43" rerouteNo="0" devices="tripinfo_flow5.13" vType="vtypeauto" speedFactor="0.97" vaporized=""/>
    <tripinfo id="flow5.2" depart="5.60" departLane="D4D3_0" departPos="4.10" departSpeed="0.00" departDelay="3.60" arrival="110.70" arrivalLane="D1D0_0" arrivalPos="79.20" arrivalSpeed="13.05" duration="105.10" routeLength="375.10" waitingTime="47.90" waitingCount="1" stopTime="0.00" timeLoss="76.33" rerouteNo="0" devices="tripinfo_flow5.2" vType="vtypeauto" speedFactor="0.94" vaporized=""/>
    <tripinfo id="flow5.15" depart="41.70" departLane="D4D3_0" departPos="4.10" departSpeed="0.00" departDelay="26.70" arrival="111.10" arrivalLane="D1D0_1" arrivalPos="79.20" arrivalSpeed="14.67" duration="69.40" routeLength="375.10" waitingTime="25.40" waitingCount="1" stopTime="0.00" timeLoss="43.79" rerouteNo="0" devices="tripinfo_flow5.15" vType="vtypeauto" speedFactor="1.06" vaporized=""/>
    <tripinfo id="flow5.4" depart="11.20" departLane="D4D3_0" departPos="4.10" departSpeed="0.00" departDelay="7.20" arrival="112.20" arrivalLane="D1D0_0" arrivalPos="79.20" arrivalSpeed="12.85" duration="101.00" routeLength="375.10" waitingTime="46.10" waitingCount="1" stopTime="0.00" timeLoss="71.98" rerouteNo="0" devices="tripinfo_flow5.4" vType="vtypeauto" speedFactor="0.93" vaporized=""/>
    <tripinfo id="flow5.17" depart="47.30" departLane="D4D3_0" departPos="4.10" departSpeed="0.00" departDelay="30.30" arrival="112.60" arrivalLane="D1D0_1" arrivalPos="79.20" arrivalSpeed="14.34" duration="65.30" routeLength="375.10" waitingTime="21.00" waitingCount="1" stopTime="0.00" timeLoss="39.16" rerouteNo="0" devices="tripinfo_flow5.17" vType="vtypeauto" speedFactor="1.03" vaporized=""/>
    <tripinfo id="flow5.6" depart="16.70" departLane="D4D3_0" departPos="4.10" departSpeed="0.00" departDelay="10.70" arrival="113.80" arrivalLane="D1D0_0" arrivalPos="79.20" arrivalSpeed="13.21" duration="97.10" routeLength="375.10" waitingTime="44.50" waitingCount="1" stopTime="0.00" timeLoss="68.80" rerouteNo="0" devices="tripinfo_flow5.6" vType="vtypeauto" speedFactor="0.96" vaporized=""/>
    <tripinfo id="flow5.19" depart="52.90" departLane="D4D3_0" departPos="4.10" departSpeed="0.00" departDelay="33.90" arrival="114.10" arrivalLane="D1D0_1" arrivalPos="79.20" arrivalSpeed="14.81" duration="61.20" routeLength="375.10" waitingTime="15.50" waitingCount="1" stopTime="0.00" timeLoss="35.94" rerouteNo="0" devices="tripinfo_flow5.19" vType="vtypeauto" speedFactor="1.07" vaporized=""/>
    <tripinfo id="flow5.8" depart="22.30" departLane="D4D3_0" departPos="4.10" departSpeed="0.00" departDelay="14.30" arrival="115.20" arrivalLane="D1D0_0" arrivalPos="79.20" arrivalSpeed="15.19" duration="92.90" routeLength="375.10" waitingTime="41.40" waitingCount="1" stopTime="0.00" timeLoss="68.22" rerouteNo="0" devices="tripinfo_flow5.8" vType="vtypeauto" speedFactor="1.10" vaporized=""/>
    <tripinfo id="flow5.18" depart="50.10" departLane="D4D3_0" departPos="4.10" departSpeed="0.00" departDelay="32.10" arrival="115.70" arrivalLane="D1D0_1" arrivalPos="79.20" arrivalSpeed="13.90" duration="65.60" routeLength="375.10" waitingTime="19.60" waitingCount="1" stopTime="0.00" timeLoss="38.82" rerouteNo="0" devices="tripinfo_flow5.18" vType="vtypeauto" speedFactor="1.01" vaporized=""/>
    <tripinfo id="flow5.10" depart="27.90" departLane="D4D3_0" departPos="4.10" departSpeed="0.00" departDelay="17.90" arrival="117.10" arrivalLane="D1D0_0" arrivalPos="79.20" arrivalSpeed="12.22" duration="89.20" routeLength="375.10" waitingTime="36.30" waitingCount="1" stopTime="0.00" timeLoss="58.57" rerouteNo="0" devices="tripinfo_flow5.10" vType="vtypeauto" speedFactor="0.88" vaporized=""/>
    <tripinfo id="flow5.16" depart="44.50" departLane="D4D3_0" departPos="4.10" departSpeed="0.00" departDelay="28.50" arrival="117.50" arrivalLane="D1D0_1" arrivalPos="79.20" arrivalSpeed="13.25" duration="73.00" routeLength="375.10" waitingTime="23.90" waitingCount="1" stopTime="0.00" timeLoss="44.76" rerouteNo="0" devices="tripinfo_flow5.16" vType="vtypeauto" speedFactor="0.96" vaporized=""/>
    <tripinfo id="flow0.0" depart="0.00" departLane="B4B3_0" departPos="4.10" departSpeed="0.00" departDelay="0.00" arrival="117.90" arrivalLane="B3A3_0" arrivalPos="79.20" arrivalSpeed="14.71" duration="117.90" routeLength="570.75" waitingTime="54.50" waitingCount="2" stopTime="0.00" timeLoss="77.16" rerouteNo="0" devices="tripinfo_flow0.0" vType="vtypeauto" speedFactor="1.06" vaporized=""/>
    <tripinfo id="flow5.12" depart="33.40" departLane="D4D3_0" departPos="4.10" departSpeed="0.00" departDelay="21.40" arrival="118.60" arrivalLane="D1D0_0" arrivalPos="79.20" arrivalSpeed="13.61" duration="85.20" routeLength="375.10" waitingTime="32.70" waitingCount="1" stopTime="0.00" timeLoss="57.70" rerouteNo="0" devices="tripinfo_flow5.12" vType="vtypeauto" speedFactor="0.98" vaporized=""/>
    <tripinfo id="flow0.6" depart="8.80" departLane="B4B3_0" departPos="4.10" departSpeed="0.00" departDelay="2.80" arrival="119.60" arrivalLane="B3A3_1" arrivalPos="79.20" arrivalSpeed="13.48" duration="110.80" routeLength="570.75" waitingTime="35.50" waitingCount="1" stopTime="0.00" timeLoss="66.40" rerouteNo="0" devices="tripinfo_flow0.6" vType="vtypeauto" speedFactor="0.97" vaporized=""/>
    <tripinfo id="flow5.14" depart="38.90" departLane="D4D3_0" departPos="4.10" departSpeed="0.00" departDelay="24.90" arrival="120.10" arrivalLane="D1D0_0" arrivalPos="79.20" arrivalSpeed="14.07" duration="81.20" routeLength="375.10" waitingTime="28.30" waitingCount="1" stopTime="0.00" timeLoss="54.75" rerouteNo="0" devices="tripinfo_flow5.14" vType="vtypeauto" speedFactor="1.02" vaporized=""/>
    <tripinfo id="flow0.1" depart="2.80" departLane="B4B3_0" departPos="4.10" departSpeed="0.00" departDelay="1.80" arrival="121.10" arrivalLane="B3A3_1" arrivalPos="79.20" arrivalSpeed="14.48" duration="118.30" routeLength="570.75" waitingTime="46.30" waitingCount="2" stopTime="0.00" timeLoss="76.95" rerouteNo="0" devices="tripinfo_flow0.1" vType="vtypeauto" speedFactor="1.05" vaporized=""/>
    <tripinfo id="flow1.18" depart="50.00" departLane="A3B3_0" departPos="4.10" departSpeed="0.00" departDelay="32.00" arrival="169.80" arrivalLane="D3E3_0" arrivalPos="79.20" arrivalSpeed="13.24" duration="119.80" routeLength="375.10" waitingTime="74.20" waitingCount="4" stopTime="0.00" timeLoss="91.62" rerouteNo="0" devices="tripinfo_flow1.18" vType="vtypeauto" speedFactor="0.96" vaporized=""/>
    <tripinfo id="flow1.19" depart="52.80" departLane="A3B3_0" departPos="4.10" departSpeed="0.00" departDelay="33.80" arrival="170.00" arrivalLane="D3E3_0" arrivalPos="79.20" arrivalSpeed="12.77" duration="117.20" routeLength="375.10" waitingTime="70.70" waitingCount="4" stopTime="0.00" timeLoss="87.89" rerouteNo="0" devices="tripinfo_flow1.19" vType="vtypeauto" speedFactor="0.92" vaporized=""/>
    <tripinfo id="flow1.21" depart="58.30" departLane="A3B3_0" departPos="4.10" departSpeed="0.00" departDelay="37.30" arrival="172.20" arrivalLane="D3E3_1" arrivalPos="79.20" arrivalSpeed="11.36" duration="113.90" routeLength="375.10" waitingTime="54.60" waitingCount="3" stopTime="0.00" timeLoss="80.97" rerouteNo="0" devices="tripinfo_flow1.21" vType="vtypeauto" speedFactor="0.82" vaporized=""/>
    <tripinfo id="flow1.23" depart="63.80" departLane="A3B3_0" departPos="4.10" departSpeed="0.00" departDelay="40.80" arrival="173.70" arrivalLane="D3E3_1" arrivalPos="79.20" arrivalSpeed="13.14" duration="109.90" routeLength="375.10" waitingTime="47.80" waitingCount="3" stopTime="0.00" timeLoss="81.53" rerouteNo="0" devices="tripinfo_flow1.23" vType="vtypeauto" speedFactor="0.95" vaporized=""/>
    <tripinfo id="flow1.25" depart="69.40" departLane="A3B3_0" departPos="4.10" departSpeed="0.00" departDelay="44.40" arrival="175.20" arrivalLane="D3E3_1" arrivalPos="79.20" arrivalSpeed="13.90" duration="105.80" routeLength="375.10" waitingTime="41.80" waitingCount="3" stopTime="0.00" timeLoss="78.84" rerouteNo="0" devices="tripinfo_flow1.25" vType="vtypeauto" speedFactor="1.00" vaporized=""/>
    <tripinfo id="flow1.20" depart="55.60" departLane="A3B3_0" departPos="4.10" departSpeed="0.00" departDelay="35.60" arrival="175.60" arrivalLane="D3E3_0" arrivalPos="79.20" arrivalSpeed="3.97" duration="120.00" routeLength="375.10" waitingTime="55.70" waitingCount="4" stopTime="0.00" timeLoss="93.61" rerouteNo="0" devices="tripinfo_flow1.20" vType="vtypeauto@flow1.20" speedFactor="1.01" vaporized=""/>
    <tripinfo id="flow1.27" depart="75.00" departLane="A3B3_0" departPos="4.10" departSpeed="0.00" departDelay="48.00" arrival="176.60" arrivalLane="D3E3_1" arrivalPos="79.20" arrivalSpeed="15.62" duration="101.60" routeLength="375.10" waitingTime="36.20" waitingCount="3" stopTime="0.00" timeLoss="77.57" rerouteNo="0" devices="tripinfo_flow1.27" vType="vtypeauto" speedFactor="1.13" vaporized=""/>
    <tripinfo id="flow1.22" depart="61.10" departLane="A3B3_0" departPos="4.10" departSpeed="0.00" departDelay="39.10" arrival="177.10" arrivalLane="D3E3_0" arrivalPos="79.20" arrivalSpeed="5.87" duration="116.00" routeLength="375.10" waitingTime="49.80" waitingCount="5" stopTime="0.00" timeLoss="89.31" rerouteNo="0" devices="tripinfo_flow1.22" vType="vtypeauto@flow1.22" speedFactor="1.01" vaporized=""/>
    <tripinfo id="flow2.14" depart="39.40" departLane="A0A1_0" departPos="4.10" departSpeed="0.00" departDelay="25.40" arrival="177.80" arrivalLane="C3D3_0" arrivalPos="79.20" arrivalSpeed="8.63" duration="138.40" routeLength="540.89" waitingTime="60.30" waitingCount="2" stopTime="0.00" timeLoss="95.93" rerouteNo="0" devices="tripinfo_flow2.14" vType="vtypeauto" speedFactor="1.00" vaporized=""/>
    <tripinfo id="flow1.24" depart="66.60" departLane="A3B3_0" departPos="4.10" departSpeed="0.00" departDelay="42.60" arrival="178.40" arrivalLane="D3E3_0" arrivalPos="79.20" arrivalSpeed="7.29" duration="111.80" routeLength="375.10" waitingTime="43.70" waitingCount="5" stopTime="0.00" timeLoss="85.43" rerouteNo="0" devices="tripinfo_flow1.24" vType="vtypeauto@flow1.24" speedFactor="1.01" vaporized=""/>
    <tripinfo id="flow1.29" depart="80.40" departLane="A3B3_0" departPos="4.10" departSpeed="0.00" departDelay="51.40" arrival="178.40" arrivalLane="D3E3_1" arrivalPos="79.20" arrivalSpeed="12.67" duration="98.00" routeLength="375.10" waitingTime="31.00" waitingCount="2" stopTime="0.00" timeLoss="68.54" rerouteNo="0" devices="tripinfo_flow1.29" vType="vtypeauto" speedFactor="0.92" vaporized=""/>
    <tripinfo id="flow3.1" depart="1.30" departLane="C0C1_0" departPos="4.10" departSpeed="0.00" departDelay="0.30" arrival="179.40" arrivalLane="D4E4_0" arrivalPos="83.20" arrivalSpeed="11.87" duration="178.10" routeLength="1101.23" waitingTime="48.30" waitingCount="3" stopTime="0.00" timeLoss="76.39" rerouteNo="0" devices="tripinfo_flow3.1" vType="vtypeauto" speedFactor="0.86" vaporized=""/>
    <tripinfo id="flow2.15" depart="42.20" departLane="A0A1_0" departPos="4.10" departSpeed="0.00" departDelay="27.20" arrival="179.40" arrivalLane="C3D3_0" arrivalPos="79.20" arrivalSpeed="10.78" duration="137.20" routeLength="540.89" waitingTime="53.10" waitingCount="3" stopTime="0.00" timeLoss="86.18" rerouteNo="0" devices="tripinfo_flow2.15" vType="vtypeauto" speedFactor="0.83" vaporized=""/>
    <tripinfo id="flow1.26" depart="72.20" departLane="A3B3_0" departPos="4.10" departSpeed="0.00" departDelay="46.20" arrival="179.70" arrivalLane="D3E3_0" arrivalPos="79.20" arrivalSpeed="8.44" duration="107.50" routeLength="375.10" waitingTime="37.50" waitingCount="5" stopTime="0.00" timeLoss="80.91" rerouteNo="0" devices="tripinfo_flow1.26" vType="vtypeauto@flow1.26" speedFactor="1.01" vaporized=""/>
    <tripinfo id="flow1.31" depart="85.70" departLane="A3B3_0" departPos="4.10" departSpeed="0.00" departDelay="54.70" arrival="180.00" arrivalLane="D3E3_1" arrivalPos="79.20" arrivalSpeed="12.34" duration="94.30" routeLength="375.10" waitingTime="29.20" waitingCount="2" stopTime="0.00" timeLoss="64.00" rerouteNo="0" devices="tripinfo_flow1.31" vType="vtypeauto" speedFactor="0.89" vaporized=""/>
    <tripinfo id="flow2.19" depart="53.40" departLane="A0A1_0" departPos="4.10" departSpeed="0.00" departDelay="34.40" arrival="180.90" arrivalLane="C3D3_0" arrivalPos="79.20" arrivalSpeed="12.35" duration="127.50" routeLength="540.89" waitingTime="36.90" waitingCount="9" stopTime="0.00" timeLoss="91.33" rerouteNo="0" devices="tripinfo_flow2.19" vType="vtypeauto" speedFactor="1.18" vaporized=""/>