<?xml version="1.0" encoding="UTF-8"?>

<!-- generated on 2024-10-30 18:52:24 by Eclipse SUMO sumo Version 1.20.0
<configuration xmlns:xsi="http://www.w3.org/2001/XMLSchema-instance" xsi:noNamespaceSchemaLocation="http://sumo.dlr.de/xsd/sumoConfiguration.xsd">

    <input>
        <net-file value="./sim_cfg_grid_2_lanes/grid.net.xml"/>
        <route-files value="./sim_cfg_grid_2_lanes/3x1.rou.xml"/>
    </input>

    <output>
        <tripinfo-output value="./sim_cfg_grid_2_lanes/tripinfo_0.342.xml"/>
    </output>

    <time>
        <begin value="0"/>
        <end value="500"/>
        <step-length value="0.1"/>
    </time>

    <traci_server>
        <remote-port value="50036"/>
    </traci_server>

    <gui_only>
        <gui-settings-file value="./sim_cfg_grid_2_lanes/gui_settings.xml"/>
    </gui_only>

</configuration>
-->

<tripinfos xmlns:xsi="http://www.w3.org/2001/XMLSchema-instance" xsi:noNamespaceSchemaLocation="http://sumo.dlr.de/xsd/tripinfo_file.xsd">
    <tripinfo id="flow1.1" depart="2.70" departLane="A3B3_0" departPos="4.10" departSpeed="0.00" departDelay="1.70" arrival="50.60" arrivalLane="D3E3_1" arrivalPos="79.20" arrivalSpeed="14.19" duration="47.90" routeLength="375.10" waitingTime="8.40" waitingCount="2" stopTime="0.00" timeLoss="21.61" rerouteNo="0" devices="tripinfo_flow1.1" vType="vtypeauto" speedFactor="1.03" vaporized=""/>
    <tripinfo id="flow1.0" depart="0.00" departLane="A3B3_0" departPos="4.10" departSpeed="0.00" departDelay="0.00" arrival="50.90" arrivalLane="D3E3_0" arrivalPos="79.20" arrivalSpeed="13.03" duration="50.90" routeLength="375.10" waitingTime="10.70" waitingCount="2" stopTime="0.00" timeLoss="22.06" rerouteNo="0" devices="tripinfo_flow1.0" vType="vtypeauto" speedFactor="0.94" vaporized=""/>
    <tripinfo id="flow1.3" depart="8.20" departLane="A3B3_0" departPos="4.10" departSpeed="0.00" departDelay="5.20" arrival="52.00" arrivalLane="D3E3_1" arrivalPos="79.20" arrivalSpeed="15.04" duration="43.80" routeLength="375.10" waitingTime="0.00" waitingCount="0" stopTime="0.00" timeLoss="19.03" rerouteNo="0" devices="tripinfo_flow1.3" vType="vtypeauto" speedFactor="1.09" vaporized=""/>
    <tripinfo id="flow1.2" depart="5.40" departLane="A3B3_0" departPos="4.10" departSpeed="0.00" departDelay="3.40" arrival="52.80" arrivalLane="D3E3_0" arrivalPos="79.20" arrivalSpeed="12.20" duration="47.40" routeLength="375.10" waitingTime="0.00" waitingCount="0" stopTime="0.00" timeLoss="16.91" rerouteNo="0" devices="tripinfo_flow1.2" vType="vtypeauto" speedFactor="0.89" vaporized=""/>
    <tripinfo id="flow1.6" depart="16.60" departLane="A3B3_0" departPos="4.10" departSpeed="0.00" departDelay="10.60" arrival="53.40" arrivalLane="D3E3_1" arrivalPos="79.20" arrivalSpeed="16.09" duration="36.80" routeLength="375.10" waitingTime="0.00" waitingCount="0" stopTime="0.00" timeLoss="13.47" rerouteNo="0" devices="tripinfo_flow1.6" vType="vtypeauto" speedFactor="1.16" vaporized=""/>
    <tripinfo id="flow1.4" depart="11.00" departLane="A3B3_0" departPos="4.10" departSpeed="0.00" departDelay="7.00" arrival="54.30" arrivalLane="D3E3_0" arrivalPos="79.20" arrivalSpeed="14.80" duration="43.30" routeLength="375.10" waitingTime="0.00" waitingCount="0" stopTime="0.00" timeLoss="19.23" rerouteNo="0" devices="tripinfo_flow1.4" vType="vtypeauto" speedFactor="1.12" vaporized=""/>
    <tripinfo id="flow1.7" depart="19.40" departLane="A3B3_0" departPos="4.10" departSpeed="0.00" departDelay="12.40" arrival="55.20" arrivalLane="D3E3_1" arrivalPos="79.20" arrivalSpeed="13.50" duration="35.80" routeLength="375.10" waitingTime="0.00" waitingCount="0" stopTime="0.00" timeLoss="8.08" rerouteNo="0" devices="tripinfo_flow1.7" vType="vtypeauto" speedFactor="0.97" vaporized=""/>
    <tripinfo id="flow1.5" depart="13.80" departLane="A3B3_0" departPos="4.10" departSpeed="0.00" departDelay="8.80" arrival="56.10" arrivalLane="D3E3_0" arrivalPos="79.20" arrivalSpeed="12.13" duration="42.30" routeLength="375.10" waitingTime="0.00" waitingCount="0" stopTime="0.00" timeLoss="11.53" rerouteNo="0" devices="tripinfo_flow1.5" vType="vtypeauto" speedFactor="0.88" vaporized=""/>
    <tripinfo id="flow1.8" depart="22.10" departLane="A3B3_0" departPos="4.10" departSpeed="0.00" departDelay="14.10" arrival="57.80" arrivalLane="D3E3_0" arrivalPos="79.20" arrivalSpeed="12.02" duration="35.70" routeLength="375.10" waitingTime="0.00" waitingCount="0" stopTime="0.00" timeLoss="4.69" rerouteNo="0" devices="tripinfo_flow1.8" vType="vtypeauto" speedFactor="0.87" vaporized=""/>
    <tripinfo id="flow2.0" depart="0.00" departLane="A0A1_0" departPos="4.10" departSpeed="0.00" departDelay="0.00" arrival="59.10" arrivalLane="C3D3_0" arrivalPos="79.20" arrivalSpeed="13.93" duration="59.10" routeLength="540.89" waitingTime="5.70" waitingCount="1" stopTime="0.00" timeLoss="17.08" rerouteNo="0" devices="tripinfo_flow2.0" vType="vtypeauto" speedFactor="1.01" vaporized=""/>
    <tripinfo id="flow1.9" depart="24.90" departLane="A3B3_0" departPos="4.10" departSpeed="0.00" departDelay="15.90" arrival="59.30" arrivalLane="D3E3_0" arrivalPos="79.20" arrivalSpeed="14.91" duration="34.40" routeLength="375.10" waitingTime="0.00" waitingCount="0" stopTime="0.00" timeLoss="10.48" rerouteNo="0" devices="tripinfo_flow1.9" vType="vtypeauto" speedFactor="1.13" vaporized=""/>
    <tripinfo id="flow1.10" depart="27.70" departLane="A3B3_0" departPos="4.10" departSpeed="0.00" departDelay="17.70" arrival="60.70" arrivalLane="D3E3_0" arrivalPos="79.20" arrivalSpeed="16.03" duration="33.00" routeLength="375.10" waitingTime="0.00" waitingCount="0" stopTime="0.00" timeLoss="9.52" rerouteNo="0" devices="tripinfo_flow1.10" vType="vtypeauto" speedFactor="1.15" vaporized=""/>
    <tripinfo id="flow1.12" depart="33.30" departLane="A3B3_0" departPos="4.10" departSpeed="0.00" departDelay="21.30" arrival="72.50" arrivalLane="D3E3_1" arrivalPos="79.20" arrivalSpeed="16.29" duration="39.20" routeLength="375.10" waitingTime="6.40" waitingCount="1" stopTime="0.00" timeLoss="16.29" rerouteNo="0" devices="tripinfo_flow1.12" vType="vtypeauto" speedFactor="1.18" vaporized=""/>
    <tripinfo id="flow1.11" depart="30.50" departLane="A3B3_0" departPos="4.10" departSpeed="0.00" departDelay="19.50" arrival="74.10" arrivalLane="D3E3_0" arrivalPos="79.20" arrivalSpeed="13.73" duration="43.60" routeLength="375.10" waitingTime="8.50" waitingCount="1" stopTime="0.00" timeLoss="16.36" rerouteNo="0" devices="tripinfo_flow1.11" vType="vtypeauto" speedFactor="0.99" vaporized=""/>
    <tripinfo id="flow1.14" depart="38.90" departLane="A3B3_0" departPos="4.10" departSpeed="0.00" departDelay="24.90" arrival="75.00" arrivalLane="D3E3_1" arrivalPos="79.20" arrivalSpeed="14.41" duration="36.10" routeLength="375.10" waitingTime="0.00" waitingCount="0" stopTime="0.00" timeLoss="10.07" rerouteNo="0" devices="tripinfo_flow1.14" vType="vtypeauto" speedFactor="1.04" vaporized=""/>
    <tripinfo id="flow1.13" depart="36.10" departLane="A3B3_0" departPos="4.10" departSpeed="0.00" departDelay="23.10" arrival="75.60" arrivalLane="D3E3_0" arrivalPos="79.20" arrivalSpeed="14.21" duration="39.50" routeLength="375.10" waitingTime="0.00" waitingCount="0" stopTime="0.00" timeLoss="13.25" rerouteNo="0" devices="tripinfo_flow1.13" vType="vtypeauto" speedFactor="1.03" vaporized=""/>
    <tripinfo id="flow1.15" depart="41.60" departLane="A3B3_0" departPos="4.10" departSpeed="0.00" departDelay="26.60" arrival="77.20" arrivalLane="D3E3_0" arrivalPos="79.20" arrivalSpeed="13.83" duration="35.60" routeLength="375.10" waitingTime="0.00" waitingCount="0" stopTime="0.00" timeLoss="8.50" rerouteNo="0" devices="tripinfo_flow1.15" vType="vtypeauto" speedFactor="1.00" vaporized=""/>
    <tripinfo id="flow1.17" depart="47.10" departLane="A3B3_0" departPos="4.10" departSpeed="0.00" departDelay="30.10" arrival="77.70" arrivalLane="D3E3_1" arrivalPos="79.20" arrivalSpeed="14.00" duration="30.60" routeLength="375.10" waitingTime="0.00" waitingCount="0" stopTime="0.00" timeLoss="3.98" rerouteNo="0" devices="tripinfo_flow1.17" vType="vtypeauto" speedFactor="1.02" vaporized=""/>
    <tripinfo id="flow2.1" depart="2.80" departLane="A0A1_0" departPos="4.10" departSpeed="0.00" departDelay="1.80" arrival="79.90" arrivalLane="C3D3_0" arrivalPos="79.20" arrivalSpeed="11.47" duration="77.10" routeLength="540.89" waitingTime="11.50" waitingCount="1" stopTime="0.00" timeLoss="25.93" rerouteNo="0" devices="tripinfo_flow2.1" vType="vtypeauto" speedFactor="0.83" vaporized=""/>
    <tripinfo id="flow1.16" depart="44.30" departLane="A3B3_0" departPos="4.10" departSpeed="0.00" departDelay="28.30" arrival="80.60" arrivalLane="D3E3_0" arrivalPos="79.20" arrivalSpeed="11.76" duration="36.30" routeLength="375.10" waitingTime="0.00" waitingCount="0" stopTime="0.00" timeLoss="4.51" rerouteNo="0" devices="tripinfo_flow1.16" vType="vtypeauto" speedFactor="0.85" vaporized=""/>
    <tripinfo id="flow2.2" depart="5.60" departLane="A0A1_0" departPos="4.10" departSpeed="0.00" departDelay="3.60" arrival="81.50" arrivalLane="C3D3_0" arrivalPos="79.20" arrivalSpeed="12.96" duration="75.90" routeLength="540.89" waitingTime="7.20" waitingCount="1" stopTime="0.00" timeLoss="30.48" rerouteNo="0" devices="tripinfo_flow2.2" vType="vtypeauto" speedFactor="0.94" vaporized=""/>
    <tripinfo id="flow2.3" depart="8.40" departLane="A0A1_0" departPos="4.10" departSpeed="0.00" departDelay="5.40" arrival="83.00" arrivalLane="C3D3_0" arrivalPos="79.20" arrivalSpeed="14.21" duration="74.60" routeLength="540.89" waitingTime="5.50" waitingCount="1" stopTime="0.00" timeLoss="33.18" rerouteNo="0" devices="tripinfo_flow2.3" vType="vtypeauto" speedFactor="1.03" vaporized=""/>
    <tripinfo id="flow2.9" depart="25.20" departLane="A0A1_0" departPos="4.10" departSpeed="0.00" departDelay="16.20" arrival="86.30" arrivalLane="C3D3_0" arrivalPos="79.20" arrivalSpeed="12.87" duration="61.10" routeLength="540.89" waitingTime="0.00" waitingCount="0" stopTime="0.00" timeLoss="15.38" rerouteNo="0" devices="tripinfo_flow2.9" vType="vtypeauto" speedFactor="0.93" vaporized=""/>
    <tripinfo id="flow2.4" depart="11.30" departLane="A0A1_0" departPos="4.10" departSpeed="0.00" departDelay="7.30" arrival="88.00" arrivalLane="C3D3_0" arrivalPos="79.20" arrivalSpeed="13.72" duration="76.70" routeLength="540.89" waitingTime="3.90" waitingCount="1" stopTime="0.00" timeLoss="33.73" rerouteNo="0" devices="tripinfo_flow2.4" vType="vtypeauto" speedFactor="0.99" vaporized=""/>
    <tripinfo id="flow2.10" depart="27.90" departLane="A0A1_0" departPos="4.10" departSpeed="0.00" departDelay="17.90" arrival="102.80" arrivalLane="C3D3_0" arrivalPos="79.20" arrivalSpeed="13.94" duration="74.90" routeLength="540.89" waitingTime="11.20" waitingCount="2" stopTime="0.00" timeLoss="32.65" rerouteNo="0" devices="tripinfo_flow2.10" vType="vtypeauto" speedFactor="1.01" vaporized=""/>
    <tripinfo id="flow2.5" depart="14.10" departLane="A0A1_0" departPos="4.10" departSpeed="0.00" departDelay="9.10" arrival="105.10" arrivalLane="C3D3_0" arrivalPos="79.20" arrivalSpeed="13.03" duration="91.00" routeLength="540.89" waitingTime="10.00" waitingCount="2" stopTime="0.00" timeLoss="45.78" rerouteNo="0" devices="tripinfo_flow2.5" vType="vtypeauto" speedFactor="0.94" vaporized=""/>
    <tripinfo id="flow2.11" depart="30.70" departLane="A0A1_0" departPos="4.10" departSpeed="0.00" departDelay="19.70" arrival="106.80" arrivalLane="C3D3_0" arrivalPos="79.20" arrivalSpeed="14.04" duration="76.10" routeLength="540.89" waitingTime="9.50" waitingCount="2" stopTime="0.00" timeLoss="34.42" rerouteNo="0" devices="tripinfo_flow2.11" vType="vtypeauto" speedFactor="1.02" vaporized=""/>
    <tripinfo id="flow2.6" depart="16.90" departLane="A0A1_0" departPos="4.10" departSpeed="0.00" departDelay="10.90" arrival="108.90" arrivalLane="C3D3_0" arrivalPos="79.20" arrivalSpeed="14.05" duration="92.00" routeLength="540.89" waitingTime="7.70" waitingCount="3" stopTime="0.00" timeLoss="50.17" rerouteNo="0" devices="tripinfo_flow2.6" vType="vtypeauto" speedFactor="1.02" vaporized=""/>
    <tripinfo id="flow2.12" depart="33.40" departLane="A0A1_0" departPos="4.10" departSpeed="0.00" departDelay="21.40" arrival="110.50" arrivalLane="C3D3_0" arrivalPos="79.20" arrivalSpeed="15.29" duration="77.10" routeLength="540.89" waitingTime="16.00" waitingCount="1" stopTime="0.00" timeLoss="38.56" rerouteNo="0" devices="tripinfo_flow2.12" vType="vtypeauto" speedFactor="1.10" vaporized=""/>
    <tripinfo id="flow2.7" depart="19.60" departLane="A0A1_0" departPos="4.10" departSpeed="0.00" departDelay="12.60" arrival="114.00" arrivalLane="C3D3_0" arrivalPos="79.20" arrivalSpeed="12.26" duration="94.40" routeLength="540.89" waitingTime="13.30" waitingCount="1" stopTime="0.00" timeLoss="46.63" rerouteNo="0" devices="tripinfo_flow2.7" vType="vtypeauto" speedFactor="0.89" vaporized=""/>
    <tripinfo id="flow2.13" depart="36.20" departLane="A0A1_0" departPos="4.10" departSpeed="0.00" departDelay="23.20" arrival="115.90" arrivalLane="C3D3_0" arrivalPos="79.20" arrivalSpeed="13.21" duration="79.70" routeLength="540.89" waitingTime="17.40" waitingCount="1" stopTime="0.00" timeLoss="35.22" rerouteNo="0" devices="tripinfo_flow2.13" vType="vtypeauto" speedFactor="0.96" vaporized=""/>
    <tripinfo id="flow2.8" depart="22.40" departLane="A0A1_0" departPos="4.10" departSpeed="0.00" departDelay="14.40" arrival="118.50" arrivalLane="C3D3_0" arrivalPos="79.20" arrivalSpeed="12.68" duration="96.10" routeLength="540.89" waitingTime="15.60" waitingCount="1" stopTime="0.00" timeLoss="49.64" rerouteNo="0" devices="tripinfo_flow2.8" vType="vtypeauto" speedFactor="0.92" vaporized=""/>
    <tripinfo id="flow2.15" depart="41.80" departLane="A0A1_0" departPos="4.10" departSpeed="0.00" departDelay="26.80" arrival="120.90" arrivalLane="C3D3_0" arrivalPos="79.20" arrivalSpeed="12.42" duration="79.10" routeLength="540.89" waitingTime="16.20" waitingCount="1" stopTime="0.00" timeLoss="31.84" rerouteNo="0" devices="tripinfo_flow2.15" vType="vtypeauto" speedFactor="0.90" vaporized=""/>
    <tripinfo id="flow2.14" depart="39.00" departLane="A0A1_0" departPos="4.10" departSpeed="0.00" departDelay="25.00" arrival="122.50" arrivalLane="C3D3_0" arrivalPos="79.20" arrivalSpeed="14.40" duration="83.50" routeLength="540.89" waitingTime="15.10" waitingCount="3" stopTime="0.00" timeLoss="42.69" rerouteNo="0" devices="tripinfo_flow2.14" vType="vtypeauto" speedFactor="1.04" vaporized=""/>
    <tripinfo id="flow2.16" depart="44.60" departLane="A0A1_0" departPos="4.10" departSpeed="0.00" departDelay="28.60" arrival="125.90" arrivalLane="C3D3_0" arrivalPos="79.20" arrivalSpeed="11.76" duration="81.30" routeLength="540.89" waitingTime="9.30" waitingCount="1" stopTime="0.00" timeLoss="31.48" rerouteNo="0" devices="tripinfo_flow2.16" vType="vtypeauto" speedFactor="0.85" vaporized=""/>
    <tripinfo id="flow2.17" depart="47.50" departLane="A0A1_0" departPos="4.10" departSpeed="0.00" departDelay="30.50" arrival="127.40" arrivalLane="C3D3_0" arrivalPos="79.20" arrivalSpeed="14.74" duration="79.90" routeLength="540.89" waitingTime="6.10" waitingCount="1" stopTime="0.00" timeLoss="41.10" rerouteNo="0" devices="tripinfo_flow2.17" vType="vtypeauto" speedFactor="1.10" vaporized=""/>
    <tripinfo id="flow0.6" depart="8.80" departLane="B4B3_0" departPos="4.10" departSpeed="0.00" departDelay="2.80" arrival="128.00" arrivalLane="B3A3_1" arrivalPos="79.20" arrivalSpeed="12.99" duration="119.20" routeLength="570.75" waitingTime="48.40" waitingCount="2" stopTime="0.00" timeLoss="73.03" rerouteNo="0" devices="tripinfo_flow0.6" vType="vtypeauto" speedFactor="0.94" vaporized=""/>
    <tripinfo id="flow2.18" depart="50.20" departLane="A0A1_0" departPos="4.10" departSpeed="0.00" departDelay="32.20" arrival="130.00" arrivalLane="C3D3_0" arrivalPos="79.20" arrivalSpeed="12.48" duration="79.80" routeLength="540.89" waitingTime="6.30" waitingCount="1" stopTime="0.00" timeLoss="32.42" rerouteNo="0" devices="tripinfo_flow2.18" vType="vtypeauto" speedFactor="0.90" vaporized=""/>
    <tripinfo id="flow2.19" depart="53.00" departLane="A0A1_0" departPos="4.10" departSpeed="0.00" departDelay="34.00" arrival="132.00" arrivalLane="C3D3_0" arrivalPos="79.20" arrivalSpeed="13.44" duration="79.00" routeLength="540.89" waitingTime="3.10" waitingCount="1" stopTime="0.00" timeLoss="35.06" rerouteNo="0" devices="tripinfo_flow2.19" vType="vtypeauto" speedFactor="0.97" vaporized=""/>
    <tripinfo id="flow0.8" depart="12.00" departLane="B4B3_0" departPos="4.10" departSpeed="0.00" departDelay="4.00" arrival="132.10" arrivalLane="B3A3_1" arrivalPos="79.20" arrivalSpeed="11.42" duration="120.10" routeLength="570.75" waitingTime="38.50" waitingCount="4" stopTime="0.00" timeLoss="67.75" rerouteNo="0" devices="tripinfo_flow0.8" vType="vtypeauto" speedFactor="0.83" vaporized=""/>
    <tripinfo id="flow0.10" depart="15.90" departLane="B4B3_0" departPos="4.10" departSpeed="0.00" departDelay="5.90" arrival="133.60" arrivalLane="B3A3_1" arrivalPos="79.20" arrivalSpeed="14.33" duration="117.70" routeLength="570.75" waitingTime="36.40" waitingCount="5" stopTime="0.00" timeLoss="81.07" rerouteNo="0" devices="tripinfo_flow0.10" vType="vtypeauto" speedFactor="1.18" vaporized=""/>
    <tripinfo id="flow2.23" depart="64.10" departLane="A0A1_0" departPos="4.10" departSpeed="0.00" departDelay="41.10" arrival="134.20" arrivalLane="C3D3_0" arrivalPos="79.20" arrivalSpeed="13.48" duration="70.10" routeLength="540.89" waitingTime="0.00" waitingCount="0" stopTime="0.00" timeLoss="26.36" rerouteNo="0" devices="tripinfo_flow2.23" vType="vtypeauto" speedFactor="0.97" vaporized=""/>
    <tripinfo id="flow0.12" depart="20.20" departLane="B4B3_0" departPos="4.10" departSpeed="0.00" departDelay="8.20" arrival="135.10" arrivalLane="B3A3_1" arrivalPos="79.20" arrivalSpeed="13.46" duration="114.90" routeLength="570.75" waitingTime="27.50" waitingCount="5" stopTime="0.00" timeLoss="70.52" rerouteNo="0" devices="tripinfo_flow0.12" vType="vtypeauto" speedFactor="0.97" vaporized=""/>
    <tripinfo id="flow2.20" depart="55.80" departLane="A0A1_0" departPos="4.10" departSpeed="0.00" departDelay="35.80" arrival="136.30" arrivalLane="C3D3_0" arrivalPos="79.20" arrivalSpeed="14.06" duration="80.50" routeLength="540.89" waitingTime="8.30" waitingCount="1" stopTime="0.00" timeLoss="38.59" rerouteNo="0" devices="tripinfo_flow2.20" vType="vtypeauto" speedFactor="1.02" vaporized=""/>
    <tripinfo id="flow2.24" depart="66.90" departLane="A0A1_0" departPos="4.10" departSpeed="0.00" departDelay="42.90" arrival="138.90" arrivalLane="C3D3_0" arrivalPos="79.20" arrivalSpeed="13.18" duration="72.00" routeLength="540.89" waitingTime="0.00" waitingCount="0" stopTime="0.00" timeLoss="27.42" rerouteNo="0" devices="tripinfo_flow2.24" vType="vtypeauto" speedFactor="0.96" vaporized=""/>
    <tripinfo id="flow2.25" depart="69.70" departLane="A0A1_0" departPos="4.10" departSpeed="0.00" departDelay="44.70" arrival="141.00" arrivalLane="C3D3_0" arrivalPos="79.20" arrivalSpeed="13.63" duration="71.30" routeLength="540.89" waitingTime="0.00" waitingCount="0" stopTime="0.00" timeLoss="27.96" rerouteNo="0" devices="tripinfo_flow2.25" vType="vtypeauto" speedFactor="0.98" vaporized=""/>
    <tripinfo id="flow2.21" depart="58.60" departLane="A0A1_0" departPos="4.10" departSpeed="0.00" departDelay="37.60" arrival="144.00" arrivalLane="C3D3_0" arrivalPos="79.20" arrivalSpeed="12.23" duration="85.40" routeLength="540.89" waitingTime="6.70" waitingCount="1" stopTime="0.00" timeLoss="37.16" rerouteNo="0" devices="tripinfo_flow2.21" vType="vtypeauto" speedFactor="0.88" vaporized=""/>
    <tripinfo id="flow2.26" depart="72.50" departLane="A0A1_0" departPos="4.10" departSpeed="0.00" departDelay="46.50" arrival="145.60" arrivalLane="C3D3_0" arrivalPos="79.20" arrivalSpeed="14.27" duration="73.10" routeLength="540.89" waitingTime="1.80" waitingCount="1" stopTime="0.00" timeLoss="31.94" rerouteNo="0" devices="tripinfo_flow2.26" vType="vtypeauto" speedFactor="1.03" vaporized=""/>
    <tripinfo id="flow2.22" depart="61.30" departLane="A0A1_0" departPos="4.10" departSpeed="0.00" departDelay="39.30" arrival="147.60" arrivalLane="C3D3_0" arrivalPos="79.20" arrivalSpeed="14.37" duration="86.30" routeLength="540.89" waitingTime="2.00" waitingCount="1" stopTime="0.00" timeLoss="45.35" rerouteNo="0" devices="tripinfo_flow2.22" vType="vtypeauto" speedFactor="1.04" vaporized=""/>
    <tripinfo id="flow2.27" depart="75.30" departLane="A0A1_0" departPos="4.10" departSpeed="0.00" departDelay="48.30" arrival="150.30" arrivalLane="C3D3_0" arrivalPos="79.20" arrivalSpeed="13.43" duration="75.00" routeLength="540.89" waitingTime="2.90" waitingCount="2" stopTime="0.00" timeLoss="30.92" rerouteNo="0" devices="tripinfo_flow2.27" vType="vtypeauto" speedFactor="0.97" vaporized=""/>
    <tripinfo id="flow0.0" depart="0.00" departLane="B4B3_0" departPos="4.10" departSpeed="0.00" departDelay="0.00" arrival="152.60" arrivalLane="B3A3_1" arrivalPos="79.20" arrivalSpeed="14.61" duration="152.60" routeLength="570.75" waitingTime="60.30" waitingCount="3" stopTime="0.00" timeLoss="111.87" rerouteNo="0" devices="tripinfo_flow0.0" vType="vtypeauto" speedFactor="1.06" vaporized=""/>
    <tripinfo id="flow0.13" depart="24.70" departLane="B4B3_0" departPos="4.10" departSpeed="0.00" departDelay="11.70" arrival="153.10" arrivalLane="B3A3_0" arrivalPos="79.20" arrivalSpeed="12.46" duration="128.40" routeLength="570.75" waitingTime="31.00" waitingCount="5" stopTime="0.00" timeLoss="80.45" rerouteNo="0" devices="tripinfo_flow0.13" vType="vtypeauto" speedFactor="0.90" vaporized=""/>
    <tripinfo id="flow0.14" depart="27.50" departLane="B4B3_0" departPos="4.10" departSpeed="0.00" departDelay="13.50" arrival="154.20" arrivalLane="B3A3_1" arrivalPos="79.20" arrivalSpeed="15.14" duration="126.70" routeLength="570.75" waitingTime="28.90" waitingCount="6" stopTime="0.00" timeLoss="87.07" rerouteNo="0" devices="tripinfo_flow0.14" vType="vtypeauto" speedFactor="1.09" vaporized=""/>
    <tripinfo id="flow1.19" depart="52.70" departLane="A3B3_0" departPos="4.10" departSpeed="0.00" departDelay="33.70" arrival="172.60" arrivalLane="D3E3_1" arrivalPos="79.20" arrivalSpeed="14.10" duration="119.90" routeLength="375.10" waitingTime="72.70" waitingCount="4" stopTime="0.00" timeLoss="93.51" rerouteNo="0" devices="tripinfo_flow1.19" vType="vtypeauto" speedFactor="1.02" vaporized=""/>
    <tripinfo id="flow1.18" depart="49.90" departLane="A3B3_0" departPos="4.10" departSpeed="0.00" departDelay="31.90" arrival="172.80" arrivalLane="D3E3_0" arrivalPos="79.20" arrivalSpeed="13.75" duration="122.90" routeLength="375.10" waitingTime="71.80" waitingCount="4" stopTime="0.00" timeLoss="95.71" rerouteNo="0" devices="tripinfo_flow1.18" vType="vtypeauto" speedFactor="1.00" vaporized=""/>
    <tripinfo id="flow1.20" depart="55.50" departLane="A3B3_0" departPos="4.10" departSpeed="0.00" departDelay="35.50" arrival="174.20" arrivalLane="D3E3_0" arrivalPos="79.20" arrivalSpeed="15.55" duration="118.70" routeLength="375.10" waitingTime="54.40" waitingCount="3" stopTime="0.00" timeLoss="94.53" rerouteNo="0" devices="tripinfo_flow1.20" vType="vtypeauto" speedFactor="1.12" vaporized=""/>
    <tripinfo id="flow1.21" depart="58.30" departLane="A3B3_0" departPos="4.10" departSpeed="0.00" departDelay="37.30" arrival="174.40" arrivalLane="D3E3_1" arrivalPos="79.20" arrivalSpeed="12.94" duration="116.10" routeLength="375.10" waitingTime="53.70" waitingCount="3" stopTime="0.00" timeLoss="87.26" rerouteNo="0" devices="tripinfo_flow1.21" vType="vtypeauto" speedFactor="0.94" vaporized=""/>
    <tripinfo id="flow1.23" depart="63.90" departLane="A3B3_0" departPos="4.10" departSpeed="0.00" departDelay="40.90" arrival="175.90" arrivalLane="D3E3_1" arrivalPos="79.20" arrivalSpeed="14.09" duration="112.00" routeLength="375.10" waitingTime="46.40" waitingCount="3" stopTime="0.00" timeLoss="85.57" rerouteNo="0" devices="tripinfo_flow1.23" vType="vtypeauto" speedFactor="1.02" vaporized=""/>
    <tripinfo id="flow1.22" depart="61.10" departLane="A3B3_0" departPos="4.10" departSpeed="0.00" departDelay="39.10" arrival="176.10" arrivalLane="D3E3_0" arrivalPos="79.20" arrivalSpeed="12.64" duration="115.00" routeLength="375.10" waitingTime="47.10" waitingCount="3" stopTime="0.00" timeLoss="85.41" rerouteNo="0" devices="tripinfo_flow1.22" vType="vtypeauto" speedFactor="0.91" vaporized=""/>
    <tripinfo id="flow1.25" depart="69.50" departLane="A3B3_0" departPos="4.10" departSpeed="0.00" departDelay="44.50" arrival="177.40" arrivalLane="D3E3_1" arrivalPos="79.20" arrivalSpeed="14.31" duration="107.90" routeLength="375.10" waitingTime="39.70" waitingCount="3" stopTime="0.00" timeLoss="81.69" rerouteNo="0" devices="tripinfo_flow1.25" vType="vtypeauto" speedFactor="1.03" vaporized=""/>
    <tripinfo id="flow1.24" depart="66.70" departLane="A3B3_0" departPos="4.10" departSpeed="0.00" departDelay="42.70" arrival="177.60" arrivalLane="D3E3_0" arrivalPos="79.20" arrivalSpeed="14.64" duration="110.90" routeLength="375.10" waitingTime="40.70" waitingCount="3" stopTime="0.00" timeLoss="85.24" rerouteNo="0" devices="tripinfo_flow1.24" vType="vtypeauto" speedFactor="1.06" vaporized=""/>
    <tripinfo id="flow1.27" depart="75.10" departLane="A3B3_0" departPos="4.10" departSpeed="0.00" departDelay="48.10" arrival="178.90" arrivalLane="D3E3_1" arrivalPos="79.20" arrivalSpeed="14.09" duration="103.80" routeLength="375.10" waitingTime="33.30" waitingCount="3" stopTime="0.00" timeLoss="77.21" rerouteNo="0" devices="tripinfo_flow1.27" vType="vtypeauto" speedFactor="1.02" vaporized=""/>
    <tripinfo id="flow1.26" depart="72.30" departLane="A3B3_0" departPos="4.10" departSpeed="0.00" departDelay="46.30" arrival="179.00" arrivalLane="D3E3_0" arrivalPos="79.20" arrivalSpeed="14.99" duration="106.70" routeLength="375.10" waitingTime="34.40" waitingCount="3" stopTime="0.00" timeLoss="81.80" rerouteNo="0" devices="tripinfo_flow1.26" vType="vtypeauto" speedFactor="1.09" vaporized=""/>
    <tripinfo id="flow1.29" depart="80.70" departLane="A3B3_0" departPos="4.10" departSpeed="0.00" departDelay="51.70" arrival="180.40" arrivalLane="D3E3_1" arrivalPos="79.20" arrivalSpeed="13.88" duration="99.70" routeLength="375.10" waitingTime="28.10" waitingCount="1" stopTime="0.00" timeLoss="72.89" rerouteNo="0" devices="tripinfo_flow1.29" vType="vtypeauto" speedFactor="1.01" vaporized=""/>
    <tripinfo id="flow1.28" depart="77.90" departLane="A3B3_0" departPos="4.10" departSpeed="0.00" departDelay="49.90" arrival="180.60" arrivalLane="D3E3_0" arrivalPos="79.20" arrivalSpeed="13.44" duration="102.70" routeLength="375.10" waitingTime="28.90" waitingCount="3" stopTime="0.00" timeLoss="75.03" rerouteNo="0" devices="tripinfo_flow1.28" vType="vtypeauto" speedFactor="0.98" vaporized=""/>
    <tripinfo id="flow2.28" depart="78.00" departLane="A0A1_0" departPos="4.10" departSpeed="0.00" departDelay="50.00" arrival="180.70" arrivalLane="C3D3_0" arrivalPos="79.20" arrivalSpeed="13.25" duration="102.70" routeLength="540.89" waitingTime="28.70" waitingCount="2" stopTime="0.00" timeLoss="60.20" rerouteNo="0" devices="tripinfo_flow2.28" vType="vtypeauto" speedFactor="1.00" vaporized=""/>
    <tripinfo id="flow1.31" depart="85.80" departLane="A3B3_0" departPos="4.10" departSpeed="0.00" departDelay="54.80" arrival="181.90" arrivalLane="D3E3_1" arrivalPos="79.20" arrivalSpeed="15.12" duration="96.10" routeLength="375.10" waitingTime="27.10" waitingCount="1" stopTime="0.00" timeLoss="71.30" rerouteNo="0" devices="tripinfo_flow1.31" vType="vtypeauto" speedFactor="1.09" vaporized=""/>
    <tripinfo id="flow2.29" depart="80.70" departLane="A0A1_0" departPos="4.10" departSpeed="0.00" departDelay="51.70" arrival="182.10" arrivalLane="C3D3_0" arrivalPos="79.20" arrivalSpeed="14.11" duration="101.40" routeLength="540.89" waitingTime="25.40" waitingCount="2" stopTime="0.00" timeLoss="59.78" rerouteNo="0" devices="tripinfo_flow2.29" vType="vtypeauto" speedFactor="1.02" vaporized=""/>
    <tripinfo id="flow1.30" depart="83.00" departLane="A3B3_0" departPos="4.10" departSpeed="0.00" departDelay="53.00" arrival="182.50" arrivalLane="D3E3_0" arrivalPos="79.20" arrivalSpeed="12.34" duration="99.50" routeLength="375.10" waitingTime="25.20" waitingCount="2" stopTime="0.00" timeLoss="69.22" rerouteNo="0" devices="tripinfo_flow1.30" vType="vtypeauto" speedFactor="0.89" vaporized=""/>
    <tripinfo id="flow1.33" depart="90.10" departLane="A3B3_0" departPos="4.10" departSpeed="0.00" departDelay="57.10" arrival="183.40" arrivalLane="D3E3_1" arrivalPos="79.20" arrivalSpeed="14.67" duration="93.30" routeLength="375.10" waitingTime="26.20" waitingCount="1" stopTime="0.00" timeLoss="67.88" rerouteNo="0" devices="tripinfo_flow1.33" vType="vtypeauto" speedFactor="1.06" vaporized=""/>
    <tripinfo id="flow2.30" depart="83.50" departLane="A0A1_0" departPos="4.10" departSpeed="0.00" departDelay="53.50" arrival="184.10" arrivalLane="C3D3_0" arrivalPos="79.20" arrivalSpeed="11.53" duration="100.60" routeLength="540.89" waitingTime="22.90" waitingCount="2" stopTime="0.00" timeLoss="49.50" rerouteNo="0" devices="tripinfo_flow2.30" vType="vtypeauto" speedFactor="0.83" vaporized=""/>
    <tripinfo id="flow1.32" depart="87.30" departLane="A3B3_0" departPos="4.10" departSpeed="0.00" departDelay="55.30" arrival="184.20" arrivalLane="D3E3_0" arrivalPos="79.20" arrivalSpeed="12.57" duration="96.90" routeLength="375.10" waitingTime="23.60" waitingCount="2" stopTime="0.00" timeLoss="67.04" rerouteNo="0" devices="tripinfo_flow1.32" vType="vtypeauto" speedFactor="0.91" vaporized=""/>
    <tripinfo id="flow1.35" depart="94.00" departLane="A3B3_0" departPos="4.10" departSpeed="0.00" departDelay="59.00" arrival="185.00" arrivalLane="D3E3_1" arrivalPos="79.20" arrivalSpeed="14.03" duration="91.00" routeLength="375.10" waitingTime="25.40" waitingCount="1" stopTime="0.00" timeLoss="64.30" rerouteNo="0" devices="tripinfo_flow1.35" vType="vtypeauto" speedFactor="1.01" vaporized=""/>