<?xml version="1.0" encoding="UTF-8"?>

<!-- generated on 2024-10-06 19:13:22 by Eclipse SUMO GUI Version 1.20.0
<configuration xmlns:xsi="http://www.w3.org/2001/XMLSchema-instance" xsi:noNamespaceSchemaLocation="http://sumo.dlr.de/xsd/sumoConfiguration.xsd">

    <input>
        <net-file value="sim_cfg_grid_2_lanes/grid.net.xml"/>
        <route-files value="sim_cfg_grid_2_lanes/grid.rou.xml"/>
    </input>

    <output>
        <tripinfo-output value="sim_cfg_grid_2_lanes/tripinfo.xml"/>
    </output>

    <time>
        <begin value="0"/>
        <end value="500"/>
        <step-length value="0.1"/>
    </time>

    <traci_server>
        <remote-port value="49669"/>
    </traci_server>

    <gui_only>
        <gui-settings-file value="sim_cfg_grid_2_lanes/gui_settings.xml"/>
    </gui_only>

</configuration>
-->

<tripinfos xmlns:xsi="http://www.w3.org/2001/XMLSchema-instance" xsi:noNamespaceSchemaLocation="http://sumo.dlr.de/xsd/tripinfo_file.xsd">
    <tripinfo id="flow1.0" depart="0.00" departLane="A3B3_0" departPos="4.10" departSpeed="0.00" departDelay="0.00" arrival="51.10" arrivalLane="D3E3_0" arrivalPos="79.20" arrivalSpeed="13.02" duration="51.10" routeLength="375.10" waitingTime="10.70" waitingCount="2" stopTime="0.00" timeLoss="22.27" rerouteNo="0" devices="tripinfo_flow1.0" vType="vtypeauto" speedFactor="0.94" vaporized=""/>
    <tripinfo id="flow1.1" depart="2.70" departLane="A3B3_0" departPos="4.10" departSpeed="0.00" departDelay="1.70" arrival="51.50" arrivalLane="D3E3_1" arrivalPos="79.20" arrivalSpeed="11.53" duration="48.80" routeLength="375.10" waitingTime="5.60" waitingCount="2" stopTime="0.00" timeLoss="16.31" rerouteNo="0" devices="tripinfo_flow1.1" vType="vtypeauto" speedFactor="0.83" vaporized=""/>
    <tripinfo id="flow1.2" depart="5.40" departLane="A3B3_0" departPos="4.10" departSpeed="0.00" departDelay="3.40" arrival="53.00" arrivalLane="D3E3_0" arrivalPos="79.20" arrivalSpeed="11.78" duration="47.60" routeLength="375.10" waitingTime="0.00" waitingCount="0" stopTime="0.00" timeLoss="16.06" rerouteNo="0" devices="tripinfo_flow1.2" vType="vtypeauto" speedFactor="0.86" vaporized=""/>
    <tripinfo id="flow1.3" depart="8.20" departLane="A3B3_0" departPos="4.10" departSpeed="0.00" departDelay="5.20" arrival="53.00" arrivalLane="D3E3_1" arrivalPos="79.20" arrivalSpeed="14.20" duration="44.80" routeLength="375.10" waitingTime="0.00" waitingCount="0" stopTime="0.00" timeLoss="20.75" rerouteNo="0" devices="tripinfo_flow1.3" vType="vtypeauto" speedFactor="1.12" vaporized=""/>
    <tripinfo id="flow1.5" depart="13.70" departLane="A3B3_0" departPos="4.10" departSpeed="0.00" departDelay="8.70" arrival="66.70" arrivalLane="D3E3_1" arrivalPos="79.20" arrivalSpeed="14.02" duration="53.00" routeLength="375.10" waitingTime="10.10" waitingCount="1" stopTime="0.00" timeLoss="26.25" rerouteNo="0" devices="tripinfo_flow1.5" vType="vtypeauto" speedFactor="1.01" vaporized=""/>
    <tripinfo id="flow1.4" depart="11.00" departLane="A3B3_0" departPos="4.10" departSpeed="0.00" departDelay="7.00" arrival="67.20" arrivalLane="D3E3_0" arrivalPos="79.20" arrivalSpeed="13.05" duration="56.20" routeLength="375.10" waitingTime="10.00" waitingCount="1" stopTime="0.00" timeLoss="27.45" rerouteNo="0" devices="tripinfo_flow1.4" vType="vtypeauto" speedFactor="0.94" vaporized=""/>
    <tripinfo id="flow1.8" depart="22.10" departLane="A3B3_0" departPos="4.10" departSpeed="0.00" departDelay="14.10" arrival="68.20" arrivalLane="D3E3_1" arrivalPos="79.20" arrivalSpeed="16.15" duration="46.10" routeLength="375.10" waitingTime="4.30" waitingCount="1" stopTime="0.00" timeLoss="22.97" rerouteNo="0" devices="tripinfo_flow1.8" vType="vtypeauto" speedFactor="1.17" vaporized=""/>
    <tripinfo id="flow1.6" depart="16.50" departLane="A3B3_0" departPos="4.10" departSpeed="0.00" departDelay="10.50" arrival="69.00" arrivalLane="D3E3_0" arrivalPos="79.20" arrivalSpeed="12.03" duration="52.50" routeLength="375.10" waitingTime="8.20" waitingCount="1" stopTime="0.00" timeLoss="21.51" rerouteNo="0" devices="tripinfo_flow1.6" vType="vtypeauto" speedFactor="0.87" vaporized=""/>
    <tripinfo id="flow1.9" depart="24.90" departLane="A3B3_0" departPos="4.10" departSpeed="0.00" departDelay="15.90" arrival="69.50" arrivalLane="D3E3_1" arrivalPos="79.20" arrivalSpeed="16.27" duration="44.60" routeLength="375.10" waitingTime="0.00" waitingCount="0" stopTime="0.00" timeLoss="21.69" rerouteNo="0" devices="tripinfo_flow1.9" vType="vtypeauto" speedFactor="1.18" vaporized=""/>
    <tripinfo id="flow1.7" depart="19.30" departLane="A3B3_0" departPos="4.10" departSpeed="0.00" departDelay="12.30" arrival="70.50" arrivalLane="D3E3_0" arrivalPos="79.20" arrivalSpeed="13.98" duration="51.20" routeLength="375.10" waitingTime="3.30" waitingCount="1" stopTime="0.00" timeLoss="23.40" rerouteNo="0" devices="tripinfo_flow1.7" vType="vtypeauto@flow1.7" speedFactor="1.01" vaporized=""/>
    <tripinfo id="flow1.11" depart="30.50" departLane="A3B3_0" departPos="4.10" departSpeed="0.00" departDelay="19.50" arrival="71.00" arrivalLane="D3E3_1" arrivalPos="79.20" arrivalSpeed="15.04" duration="40.50" routeLength="375.10" waitingTime="0.00" waitingCount="0" stopTime="0.00" timeLoss="15.66" rerouteNo="0" devices="tripinfo_flow1.11" vType="vtypeauto" speedFactor="1.09" vaporized=""/>
    <tripinfo id="flow2.0" depart="0.00" departLane="A0A1_0" departPos="4.10" departSpeed="0.00" departDelay="0.00" arrival="71.30" arrivalLane="C3D3_0" arrivalPos="79.20" arrivalSpeed="14.00" duration="71.30" routeLength="540.89" waitingTime="13.60" waitingCount="2" stopTime="0.00" timeLoss="29.25" rerouteNo="0" devices="tripinfo_flow2.0" vType="vtypeauto" speedFactor="1.01" vaporized=""/>
    <tripinfo id="flow1.10" depart="27.70" departLane="A3B3_0" departPos="4.10" departSpeed="0.00" departDelay="17.70" arrival="72.10" arrivalLane="D3E3_0" arrivalPos="79.20" arrivalSpeed="13.24" duration="44.40" routeLength="375.10" waitingTime="0.00" waitingCount="0" stopTime="0.00" timeLoss="16.10" rerouteNo="0" devices="tripinfo_flow1.10" vType="vtypeauto" speedFactor="0.96" vaporized=""/>
    <tripinfo id="flow1.13" depart="36.20" departLane="A3B3_0" departPos="4.10" departSpeed="0.00" departDelay="23.20" arrival="72.50" arrivalLane="D3E3_1" arrivalPos="79.20" arrivalSpeed="15.17" duration="36.30" routeLength="375.10" waitingTime="0.00" waitingCount="0" stopTime="0.00" timeLoss="11.60" rerouteNo="0" devices="tripinfo_flow1.13" vType="vtypeauto" speedFactor="1.10" vaporized=""/>
    <tripinfo id="flow2.1" depart="2.80" departLane="A0A1_0" departPos="4.10" departSpeed="0.00" departDelay="1.80" arrival="72.70" arrivalLane="C3D3_0" arrivalPos="79.20" arrivalSpeed="15.80" duration="69.90" routeLength="540.89" waitingTime="3.10" waitingCount="1" stopTime="0.00" timeLoss="32.64" rerouteNo="0" devices="tripinfo_flow2.1" vType="vtypeauto@flow2.1" speedFactor="2.15" vaporized=""/>
    <tripinfo id="flow1.15" depart="41.80" departLane="A3B3_0" departPos="4.10" departSpeed="0.00" departDelay="26.80" arrival="73.90" arrivalLane="D3E3_1" arrivalPos="79.20" arrivalSpeed="15.53" duration="32.10" routeLength="375.10" waitingTime="0.00" waitingCount="0" stopTime="0.00" timeLoss="7.97" rerouteNo="0" devices="tripinfo_flow1.15" vType="vtypeauto" speedFactor="1.12" vaporized=""/>
    <tripinfo id="flow1.12" depart="33.40" departLane="A3B3_0" departPos="4.10" departSpeed="0.00" departDelay="21.40" arrival="74.00" arrivalLane="D3E3_0" arrivalPos="79.20" arrivalSpeed="11.73" duration="40.60" routeLength="375.10" waitingTime="0.00" waitingCount="0" stopTime="0.00" timeLoss="8.79" rerouteNo="0" devices="tripinfo_flow1.12" vType="vtypeauto" speedFactor="0.85" vaporized=""/>
    <tripinfo id="flow2.2" depart="5.60" departLane="A0A1_0" departPos="4.10" departSpeed="0.00" departDelay="3.60" arrival="74.80" arrivalLane="C3D3_0" arrivalPos="79.20" arrivalSpeed="15.05" duration="69.20" routeLength="540.89" waitingTime="0.00" waitingCount="0" stopTime="0.00" timeLoss="30.19" rerouteNo="0" devices="tripinfo_flow2.2" vType="vtypeauto" speedFactor="1.09" vaporized=""/>
    <tripinfo id="flow1.14" depart="39.00" departLane="A3B3_0" departPos="4.10" departSpeed="0.00" departDelay="25.00" arrival="75.50" arrivalLane="D3E3_0" arrivalPos="79.20" arrivalSpeed="14.31" duration="36.50" routeLength="375.10" waitingTime="0.00" waitingCount="0" stopTime="0.00" timeLoss="12.84" rerouteNo="0" devices="tripinfo_flow1.14" vType="vtypeauto" speedFactor="1.14" vaporized=""/>
    <tripinfo id="flow2.3" depart="8.40" departLane="A0A1_0" departPos="4.10" departSpeed="0.00" departDelay="5.40" arrival="77.50" arrivalLane="C3D3_0" arrivalPos="79.20" arrivalSpeed="13.77" duration="69.10" routeLength="540.89" waitingTime="0.00" waitingCount="0" stopTime="0.00" timeLoss="26.07" rerouteNo="0" devices="tripinfo_flow2.3" vType="vtypeauto" speedFactor="0.99" vaporized=""/>
    <tripinfo id="flow2.4" depart="11.20" departLane="A0A1_0" departPos="4.10" departSpeed="0.00" departDelay="7.20" arrival="80.10" arrivalLane="C3D3_0" arrivalPos="79.20" arrivalSpeed="12.98" duration="68.90" routeLength="540.89" waitingTime="0.00" waitingCount="0" stopTime="0.00" timeLoss="23.44" rerouteNo="0" devices="tripinfo_flow2.4" vType="vtypeauto" speedFactor="0.94" vaporized=""/>
    <tripinfo id="flow2.5" depart="14.00" departLane="A0A1_0" departPos="4.10" departSpeed="0.00" departDelay="9.00" arrival="82.10" arrivalLane="C3D3_0" arrivalPos="79.20" arrivalSpeed="13.53" duration="68.10" routeLength="540.89" waitingTime="0.00" waitingCount="0" stopTime="0.00" timeLoss="24.38" rerouteNo="0" devices="tripinfo_flow2.5" vType="vtypeauto" speedFactor="0.97" vaporized=""/>
    <tripinfo id="flow2.6" depart="16.70" departLane="A0A1_0" departPos="4.10" departSpeed="0.00" departDelay="10.70" arrival="84.80" arrivalLane="C3D3_0" arrivalPos="79.20" arrivalSpeed="12.69" duration="68.10" routeLength="540.89" waitingTime="0.00" waitingCount="0" stopTime="0.00" timeLoss="21.71" rerouteNo="0" devices="tripinfo_flow2.6" vType="vtypeauto" speedFactor="0.92" vaporized=""/>
    <tripinfo id="flow2.7" depart="19.50" departLane="A0A1_0" departPos="4.10" departSpeed="0.00" departDelay="12.50" arrival="86.30" arrivalLane="C3D3_0" arrivalPos="79.20" arrivalSpeed="15.06" duration="66.80" routeLength="540.89" waitingTime="0.00" waitingCount="0" stopTime="0.00" timeLoss="30.73" rerouteNo="0" devices="tripinfo_flow2.7" vType="vtypeauto" speedFactor="1.18" vaporized=""/>
    <tripinfo id="flow2.8" depart="22.30" departLane="A0A1_0" departPos="4.10" departSpeed="0.00" departDelay="14.30" arrival="88.60" arrivalLane="C3D3_0" arrivalPos="79.20" arrivalSpeed="13.77" duration="66.30" routeLength="540.89" waitingTime="0.00" waitingCount="0" stopTime="0.00" timeLoss="23.45" rerouteNo="0" devices="tripinfo_flow2.8" vType="vtypeauto" speedFactor="0.99" vaporized=""/>
    <tripinfo id="flow2.9" depart="25.10" departLane="A0A1_0" departPos="4.10" departSpeed="0.00" departDelay="16.10" arrival="90.30" arrivalLane="C3D3_0" arrivalPos="79.20" arrivalSpeed="15.24" duration="65.20" routeLength="540.89" waitingTime="0.00" waitingCount="0" stopTime="0.00" timeLoss="26.51" rerouteNo="0" devices="tripinfo_flow2.9" vType="vtypeauto" speedFactor="1.10" vaporized=""/>
    <tripinfo id="flow2.10" depart="27.90" departLane="A0A1_0" departPos="4.10" departSpeed="0.00" departDelay="17.90" arrival="92.40" arrivalLane="C3D3_0" arrivalPos="79.20" arrivalSpeed="15.13" duration="64.50" routeLength="540.89" waitingTime="0.10" waitingCount="1" stopTime="0.00" timeLoss="25.52" rerouteNo="0" devices="tripinfo_flow2.10" vType="vtypeauto" speedFactor="1.09" vaporized=""/>
    <tripinfo id="flow2.11" depart="30.70" departLane="A0A1_0" departPos="4.10" departSpeed="0.00" departDelay="19.70" arrival="95.40" arrivalLane="C3D3_0" arrivalPos="79.20" arrivalSpeed="13.79" duration="64.70" routeLength="540.89" waitingTime="0.00" waitingCount="0" stopTime="0.00" timeLoss="22.08" rerouteNo="0" devices="tripinfo_flow2.11" vType="vtypeauto" speedFactor="1.00" vaporized=""/>
    <tripinfo id="flow0.0" depart="0.00" departLane="B4B3_0" departPos="4.10" departSpeed="0.00" departDelay="0.00" arrival="104.70" arrivalLane="B3A3_1" arrivalPos="79.20" arrivalSpeed="14.69" duration="104.70" routeLength="570.75" waitingTime="51.20" waitingCount="1" stopTime="0.00" timeLoss="63.86" rerouteNo="0" devices="tripinfo_flow0.0" vType="vtypeauto" speedFactor="1.06" vaporized=""/>
    <tripinfo id="flow3.0" depart="0.00" departLane="C0C1_0" departPos="4.10" departSpeed="0.00" departDelay="0.00" arrival="105.90" arrivalLane="D4E4_0" arrivalPos="83.20" arrivalSpeed="14.97" duration="105.90" routeLength="1101.23" waitingTime="6.40" waitingCount="1" stopTime="0.00" timeLoss="25.50" rerouteNo="0" devices="tripinfo_flow3.0" vType="vtypeauto" speedFactor="1.08" vaporized=""/>
    <tripinfo id="flow2.12" depart="33.40" departLane="A0A1_0" departPos="4.10" departSpeed="0.00" departDelay="21.40" arrival="112.50" arrivalLane="C3D3_0" arrivalPos="79.20" arrivalSpeed="10.08" duration="79.10" routeLength="540.89" waitingTime="9.10" waitingCount="2" stopTime="0.00" timeLoss="29.27" rerouteNo="0" devices="tripinfo_flow2.12" vType="vtypeauto" speedFactor="0.85" vaporized=""/>
    <tripinfo id="flow2.13" depart="36.20" departLane="A0A1_0" departPos="4.10" departSpeed="0.00" departDelay="23.20" arrival="114.10" arrivalLane="C3D3_0" arrivalPos="79.20" arrivalSpeed="12.92" duration="77.90" routeLength="540.89" waitingTime="2.30" waitingCount="1" stopTime="0.00" timeLoss="35.44" rerouteNo="0" devices="tripinfo_flow2.13" vType="vtypeauto" speedFactor="1.00" vaporized=""/>
    <tripinfo id="flow0.1" depart="2.80" departLane="B4B3_0" departPos="4.10" departSpeed="0.00" departDelay="1.80" arrival="118.30" arrivalLane="B3A3_1" arrivalPos="79.20" arrivalSpeed="14.30" duration="115.50" routeLength="570.75" waitingTime="49.50" waitingCount="2" stopTime="0.00" timeLoss="73.53" rerouteNo="0" devices="tripinfo_flow0.1" vType="vtypeauto" speedFactor="1.03" vaporized=""/>
    <tripinfo id="flow1.17" depart="47.40" departLane="A3B3_0" departPos="4.10" departSpeed="0.00" departDelay="30.40" arrival="119.60" arrivalLane="D3E3_1" arrivalPos="79.20" arrivalSpeed="14.08" duration="72.20" routeLength="375.10" waitingTime="32.90" waitingCount="2" stopTime="0.00" timeLoss="45.72" rerouteNo="0" devices="tripinfo_flow1.17" vType="vtypeauto" speedFactor="1.02" vaporized=""/>
    <tripinfo id="flow1.16" depart="44.60" departLane="A3B3_0" departPos="4.10" departSpeed="0.00" departDelay="28.60" arrival="120.20" arrivalLane="D3E3_0" arrivalPos="79.20" arrivalSpeed="12.25" duration="75.60" routeLength="375.10" waitingTime="34.10" waitingCount="2" stopTime="0.00" timeLoss="44.99" rerouteNo="0" devices="tripinfo_flow1.16" vType="vtypeauto" speedFactor="0.88" vaporized=""/>
    <tripinfo id="flow2.14" depart="39.00" departLane="A0A1_0" departPos="4.10" departSpeed="0.00" departDelay="25.00" arrival="126.80" arrivalLane="C3D3_0" arrivalPos="79.20" arrivalSpeed="14.12" duration="87.80" routeLength="540.89" waitingTime="14.00" waitingCount="3" stopTime="0.00" timeLoss="46.25" rerouteNo="0" devices="tripinfo_flow2.14" vType="vtypeauto" speedFactor="1.02" vaporized=""/>
    <tripinfo id="flow2.15" depart="41.80" departLane="A0A1_0" departPos="4.10" departSpeed="0.00" departDelay="26.80" arrival="128.70" arrivalLane="C3D3_0" arrivalPos="79.20" arrivalSpeed="13.99" duration="86.90" routeLength="540.89" waitingTime="9.00" waitingCount="1" stopTime="0.00" timeLoss="44.99" rerouteNo="0" devices="tripinfo_flow2.15" vType="vtypeauto" speedFactor="1.02" vaporized=""/>
    <tripinfo id="flow3.1" depart="1.30" departLane="C0C1_0" departPos="4.10" departSpeed="0.00" departDelay="0.30" arrival="129.80" arrivalLane="D4E4_0" arrivalPos="83.20" arrivalSpeed="12.29" duration="128.50" routeLength="1101.23" waitingTime="4.10" waitingCount="2" stopTime="0.00" timeLoss="30.24" rerouteNo="0" devices="tripinfo_flow3.1" vType="vtypeauto" speedFactor="0.89" vaporized=""/>
    <tripinfo id="flow2.19" depart="52.90" departLane="A0A1_0" departPos="4.10" departSpeed="0.00" departDelay="33.90" arrival="130.90" arrivalLane="C3D3_0" arrivalPos="79.20" arrivalSpeed="13.99" duration="78.00" routeLength="540.89" waitingTime="10.70" waitingCount="2" stopTime="0.00" timeLoss="35.79" rerouteNo="0" devices="tripinfo_flow2.19" vType="vtypeauto" speedFactor="1.01" vaporized=""/>
    <tripinfo id="flow2.16" depart="44.60" departLane="A0A1_0" departPos="4.10" departSpeed="0.00" departDelay="28.60" arrival="133.20" arrivalLane="C3D3_0" arrivalPos="79.20" arrivalSpeed="13.97" duration="88.60" routeLength="540.89" waitingTime="6.60" waitingCount="3" stopTime="0.00" timeLoss="44.78" rerouteNo="0" devices="tripinfo_flow2.16" vType="vtypeauto@flow2.16" speedFactor="1.01" vaporized=""/>
    <tripinfo id="flow0.8" depart="14.40" departLane="B4B3_0" departPos="4.10" departSpeed="0.00" departDelay="6.40" arrival="134.50" arrivalLane="B3A3_1" arrivalPos="79.20" arrivalSpeed="13.87" duration="120.10" routeLength="570.75" waitingTime="49.30" waitingCount="4" stopTime="0.00" timeLoss="77.12" rerouteNo="0" devices="tripinfo_flow0.8" vType="vtypeauto" speedFactor="1.01" vaporized=""/>
    <tripinfo id="flow2.20" depart="55.60" departLane="A0A1_0" departPos="4.10" departSpeed="0.00" departDelay="35.60" arrival="135.30" arrivalLane="C3D3_0" arrivalPos="79.20" arrivalSpeed="14.04" duration="79.70" routeLength="540.89" waitingTime="5.10" waitingCount="1" stopTime="0.00" timeLoss="37.80" rerouteNo="0" devices="tripinfo_flow2.20" vType="vtypeauto" speedFactor="1.02" vaporized=""/>
    <tripinfo id="flow0.9" depart="17.30" departLane="B4B3_0" departPos="4.10" departSpeed="0.00" departDelay="8.30" arrival="135.80" arrivalLane="B3A3_1" arrivalPos="79.20" arrivalSpeed="13.99" duration="118.50" routeLength="570.75" waitingTime="33.80" waitingCount="4" stopTime="0.00" timeLoss="75.49" rerouteNo="0" devices="tripinfo_flow0.9" vType="vtypeauto@flow0.9" speedFactor="1.01" vaporized=""/>
    <tripinfo id="flow2.17" depart="47.40" departLane="A0A1_0" departPos="4.10" departSpeed="0.00" departDelay="30.40" arrival="137.00" arrivalLane="C3D3_0" arrivalPos="79.20" arrivalSpeed="13.88" duration="89.60" routeLength="540.89" waitingTime="3.40" waitingCount="1" stopTime="0.00" timeLoss="48.42" rerouteNo="0" devices="tripinfo_flow2.17" vType="vtypeauto@flow2.17" speedFactor="1.01" vaporized=""/>
    <tripinfo id="flow0.19" depart="53.20" departLane="B4B3_0" departPos="4.10" departSpeed="0.00" departDelay="34.20" arrival="137.30" arrivalLane="B3A3_1" arrivalPos="79.20" arrivalSpeed="14.26" duration="84.10" routeLength="570.75" waitingTime="12.30" waitingCount="3" stopTime="0.00" timeLoss="42.30" rerouteNo="0" devices="tripinfo_flow0.19" vType="vtypeauto" speedFactor="1.03" vaporized=""/>
    <tripinfo id="flow2.18" depart="50.10" departLane="A0A1_0" departPos="4.10" departSpeed="0.00" departDelay="32.10" arrival="138.20" arrivalLane="C3D3_0" arrivalPos="79.20" arrivalSpeed="15.86" duration="88.10" routeLength="540.89" waitingTime="1.60" waitingCount="1" stopTime="0.00" timeLoss="56.42" rerouteNo="0" devices="tripinfo_flow2.18" vType="vtypeauto@flow2.18" speedFactor="2.15" vaporized=""/>
    <tripinfo id="flow2.21" depart="58.40" departLane="A0A1_0" departPos="4.10" departSpeed="0.00" departDelay="37.40" arrival="140.70" arrivalLane="C3D3_0" arrivalPos="79.20" arrivalSpeed="13.83" duration="82.30" routeLength="540.89" waitingTime="5.20" waitingCount="3" stopTime="0.00" timeLoss="39.79" rerouteNo="0" devices="tripinfo_flow2.21" vType="vtypeauto" speedFactor="1.00" vaporized=""/>
    <tripinfo id="flow0.11" depart="20.20" departLane="B4B3_0" departPos="4.10" departSpeed="0.00" departDelay="9.20" arrival="141.40" arrivalLane="B3A3_1" arrivalPos="79.20" arrivalSpeed="13.89" duration="121.20" routeLength="570.75" waitingTime="35.10" waitingCount="4" stopTime="0.00" timeLoss="78.48" rerouteNo="0" devices="tripinfo_flow0.11" vType="vtypeauto@flow0.11" speedFactor="1.01" vaporized=""/>
    <tripinfo id="flow2.22" depart="61.20" departLane="A0A1_0" departPos="4.10" departSpeed="0.00" departDelay="39.20" arrival="143.50" arrivalLane="C3D3_0" arrivalPos="79.20" arrivalSpeed="14.11" duration="82.30" routeLength="540.89" waitingTime="6.00" waitingCount="4" stopTime="0.00" timeLoss="40.52" rerouteNo="0" devices="tripinfo_flow2.22" vType="vtypeauto" speedFactor="1.02" vaporized=""/>
    <tripinfo id="flow3.2" depart="3.20" departLane="C0C1_0" departPos="4.10" departSpeed="0.00" departDelay="1.20" arrival="145.50" arrivalLane="D4E4_0" arrivalPos="83.20" arrivalSpeed="14.16" duration="142.30" routeLength="1101.23" waitingTime="6.20" waitingCount="2" stopTime="0.00" timeLoss="57.37" rerouteNo="0" devices="tripinfo_flow3.2" vType="vtypeauto" speedFactor="1.03" vaporized=""/>
    <tripinfo id="flow2.23" depart="64.00" departLane="A0A1_0" departPos="4.10" departSpeed="0.00" departDelay="41.00" arrival="148.50" arrivalLane="C3D3_0" arrivalPos="79.20" arrivalSpeed="15.04" duration="84.50" routeLength="540.89" waitingTime="7.20" waitingCount="6" stopTime="0.00" timeLoss="45.46" rerouteNo="0" devices="tripinfo_flow2.23" vType="vtypeauto" speedFactor="1.09" vaporized=""/>
    <tripinfo id="flow3.3" depart="5.20" departLane="C0C1_0" departPos="4.10" departSpeed="0.00" departDelay="2.20" arrival="148.90" arrivalLane="D4E4_0" arrivalPos="83.20" arrivalSpeed="12.79" duration="143.70" routeLength="1101.23" waitingTime="2.90" waitingCount="4" stopTime="0.00" timeLoss="49.55" rerouteNo="0" devices="tripinfo_flow3.3" vType="vtypeauto" speedFactor="0.93" vaporized=""/>
    <tripinfo id="flow3.4" depart="7.30" departLane="C0C1_0" departPos="4.10" departSpeed="0.00" departDelay="3.30" arrival="150.40" arrivalLane="D4E4_0" arrivalPos="83.20" arrivalSpeed="15.96" duration="143.10" routeLength="1101.23" waitingTime="1.60" waitingCount="4" stopTime="0.00" timeLoss="67.82" rerouteNo="0" devices="tripinfo_flow3.4" vType="vtypeauto" speedFactor="1.16" vaporized=""/>
    <tripinfo id="flow2.24" depart="66.80" departLane="A0A1_0" departPos="4.10" departSpeed="0.00" departDelay="42.80" arrival="153.50" arrivalLane="C3D3_0" arrivalPos="79.20" arrivalSpeed="15.53" duration="86.70" routeLength="540.89" waitingTime="7.70" waitingCount="2" stopTime="0.00" timeLoss="48.79" rerouteNo="0" devices="tripinfo_flow2.24" vType="vtypeauto" speedFactor="1.12" vaporized=""/>
    <tripinfo id="flow0.20" depart="64.50" departLane="B4B3_0" departPos="4.10" departSpeed="0.00" departDelay="44.50" arrival="159.60" arrivalLane="B3A3_1" arrivalPos="79.20" arrivalSpeed="14.29" duration="95.10" routeLength="570.75" waitingTime="19.30" waitingCount="3" stopTime="0.00" timeLoss="53.36" rerouteNo="0" devices="tripinfo_flow0.20" vType="vtypeauto" speedFactor="1.03" vaporized=""/>
    <tripinfo id="flow0.2" depart="2.90" departLane="B4B3_0" departPos="4.10" departSpeed="0.00" departDelay="0.90" arrival="160.00" arrivalLane="B3A3_0" arrivalPos="79.20" arrivalSpeed="12.93" duration="157.10" routeLength="570.75" waitingTime="54.40" waitingCount="3" stopTime="0.00" timeLoss="110.97" rerouteNo="0" devices="tripinfo_flow0.2" vType="vtypeauto" speedFactor="0.94" vaporized=""/>
    <tripinfo id="flow2.28" depart="78.00" departLane="A0A1_0" departPos="4.10" departSpeed="0.00" departDelay="50.00" arrival="160.30" arrivalLane="C3D3_0" arrivalPos="79.20" arrivalSpeed="15.13" duration="82.30" routeLength="540.89" waitingTime="7.70" waitingCount="3" stopTime="0.00" timeLoss="43.55" rerouteNo="0" devices="tripinfo_flow2.28" vType="vtypeauto" speedFactor="1.10" vaporized=""/>
    <tripinfo id="flow0.12" depart="24.20" departLane="B4B3_0" departPos="4.10" departSpeed="0.00" departDelay="12.20" arrival="160.90" arrivalLane="B3A3_1" arrivalPos="79.20" arrivalSpeed="13.91" duration="136.70" routeLength="570.75" waitingTime="31.00" waitingCount="4" stopTime="0.00" timeLoss="93.27" rerouteNo="0" devices="tripinfo_flow0.12" vType="vtypeauto@flow0.12" speedFactor="1.01" vaporized=""/>
    <tripinfo id="flow0.14" depart="29.70" departLane="B4B3_0" departPos="4.10" departSpeed="0.00" departDelay="15.70" arrival="161.20" arrivalLane="B3A3_0" arrivalPos="79.20" arrivalSpeed="14.00" duration="131.50" routeLength="570.75" waitingTime="22.90" waitingCount="3" stopTime="0.00" timeLoss="88.29" rerouteNo="0" devices="tripinfo_flow0.14" vType="vtypeauto@flow0.14" speedFactor="1.01" vaporized=""/>
    <tripinfo id="flow0.13" depart="26.90" departLane="B4B3_0" departPos="4.10" departSpeed="0.00" departDelay="13.90" arrival="162.10" arrivalLane="B3A3_1" arrivalPos="79.20" arrivalSpeed="13.93" duration="135.20" routeLength="570.75" waitingTime="26.20" waitingCount="3" stopTime="0.00" timeLoss="92.37" rerouteNo="0" devices="tripinfo_flow0.13" vType="vtypeauto@flow0.13" speedFactor="1.01" vaporized=""/>
    <tripinfo id="flow3.5" depart="9.60" departLane="C0C1_0" departPos="4.10" departSpeed="0.00" departDelay="4.60" arrival="163.60" arrivalLane="D4E4_0" arrivalPos="83.20" arrivalSpeed="12.27" duration="154.00" routeLength="1101.23" waitingTime="7.70" waitingCount="2" stopTime="0.00" timeLoss="56.10" rerouteNo="0" devices="tripinfo_flow3.5" vType="vtypeauto" speedFactor="0.89" vaporized=""/>
    <tripinfo id="flow0.4" depart="5.80" departLane="B4B3_0" departPos="4.10" departSpeed="0.00" departDelay="1.80" arrival="164.10" arrivalLane="B3A3_1" arrivalPos="79.20" arrivalSpeed="12.08" duration="158.30" routeLength="570.75" waitingTime="50.20" waitingCount="7" stopTime="0.00" timeLoss="109.12" rerouteNo="0" devices="tripinfo_flow0.4" vType="vtypeauto" speedFactor="0.88" vaporized=""/>
    <tripinfo id="flow0.15" depart="32.40" departLane="B4B3_0" departPos="4.10" departSpeed="0.00" departDelay="17.40" arrival="165.30" arrivalLane="B3A3_1" arrivalPos="79.20" arrivalSpeed="13.97" duration="132.90" routeLength="570.75" waitingTime="17.80" waitingCount="5" stopTime="0.00" timeLoss="90.21" rerouteNo="0" devices="tripinfo_flow0.15" vType="vtypeauto@flow0.15" speedFactor="1.01" vaporized=""/>
    <tripinfo id="flow3.6" depart="11.70" departLane="C0C1_0" departPos="4.10" departSpeed="0.00" departDelay="5.70" arrival="165.90" arrivalLane="D4E4_0" arrivalPos="83.20" arrivalSpeed="13.12" duration="154.20" routeLength="1101.23" waitingTime="2.20" waitingCount="2" stopTime="0.00" timeLoss="62.17" rerouteNo="0" devices="tripinfo_flow3.6" vType="vtypeauto" speedFactor="0.95" vaporized=""/>
    <tripinfo id="flow0.16" depart="35.20" departLane="B4B3_0" departPos="4.10" departSpeed="0.00" departDelay="19.20" arrival="166.50" arrivalLane="B3A3_1" arrivalPos="79.20" arrivalSpeed="13.88" duration="131.30" routeLength="570.75" waitingTime="13.20" waitingCount="4" stopTime="0.00" timeLoss="88.33" rerouteNo="0" devices="tripinfo_flow0.16" vType="vtypeauto@flow0.16" speedFactor="1.01" vaporized=""/>
    <tripinfo id="flow2.25" depart="69.60" departLane="A0A1_0" departPos="4.10" departSpeed="0.00" departDelay="44.60" arrival="167.30" arrivalLane="C3D3_0" arrivalPos="79.20" arrivalSpeed="13.43" duration="97.70" routeLength="540.89" waitingTime="10.10" waitingCount="2" stopTime="0.00" timeLoss="53.76" rerouteNo="0" devices="tripinfo_flow2.25" vType="vtypeauto" speedFactor="0.97" vaporized=""/>
    <tripinfo id="flow0.3" depart="5.70" departLane="B4B3_0" departPos="4.10" departSpeed="0.00" departDelay="2.70" arrival="168.00" arrivalLane="B3A3_1" arrivalPos="79.20" arrivalSpeed="14.47" duration="162.30" routeLength="570.75" waitingTime="44.10" waitingCount="4" stopTime="0.00" timeLoss="120.98" rerouteNo="0" devices="tripinfo_flow0.3" vType="vtypeauto" speedFactor="1.05" vaporized=""/>
    <tripinfo id="flow0.18" depart="38.10" departLane="B4B3_0" departPos="4.10" departSpeed="0.00" departDelay="20.10" arrival="169.20" arrivalLane="B3A3_1" arrivalPos="79.20" arrivalSpeed="13.88" duration="131.10" routeLength="570.75" waitingTime="8.40" waitingCount="3" stopTime="0.00" timeLoss="88.16" rerouteNo="0" devices="tripinfo_flow0.18" vType="vtypeauto@flow0.18" speedFactor="1.01" vaporized=""/>
    <tripinfo id="flow0.5" depart="8.60" departLane="B4B3_0" departPos="4.10" departSpeed="0.00" departDelay="3.60" arrival="170.80" arrivalLane="B3A3_1" arrivalPos="79.20" arrivalSpeed="14.07" duration="162.20" routeLength="570.75" waitingTime="40.50" waitingCount="1" stopTime="0.00" timeLoss="119.71" rerouteNo="0" devices="tripinfo_flow0.5" vType="vtypeauto" speedFactor="1.02" vaporized=""/>
    <tripinfo id="flow0.21" depart="67.20" departLane="B4B3_0" departPos="4.10" departSpeed="0.00" departDelay="46.20" arrival="172.20" arrivalLane="B3A3_1" arrivalPos="79.20" arrivalSpeed="15.92" duration="105.00" routeLength="570.75" waitingTime="0.10" waitingCount="1" stopTime="0.00" timeLoss="67.35" rerouteNo="0" devices="tripinfo_flow0.21" vType="vtypeauto" speedFactor="1.15" vaporized=""/>
    <tripinfo id="flow1.19" depart="52.90" departLane="A3B3_0" departPos="4.10" departSpeed="0.00" departDelay="33.90" arrival="190.70" arrivalLane="D3E3_0" arrivalPos="79.20" arrivalSpeed="13.54" duration="137.80" routeLength="375.10" waitingTime="87.30" waitingCount="4" stopTime="0.00" timeLoss="110.29" rerouteNo="0" devices="tripinfo_flow1.19" vType="vtypeauto" speedFactor="0.98" vaporized=""/>
    <tripinfo id="flow1.21" depart="58.50" departLane="A3B3_0" departPos="4.10" departSpeed="0.00" departDelay="37.50" arrival="191.00" arrivalLane="D3E3_1" arrivalPos="79.20" arrivalSpeed="13.44" duration="132.50" routeLength="375.10" waitingTime="78.80" waitingCount="4" stopTime="0.00" timeLoss="104.79" rerouteNo="0" devices="tripinfo_flow1.21" vType="vtypeauto" speedFactor="0.98" vaporized=""/>