<?xml version="1.0" encoding="UTF-8"?>

<!-- generated on 2024-09-08 17:22:14 by Eclipse SUMO GUI Version 1.20.0
<configuration xmlns:xsi="http://www.w3.org/2001/XMLSchema-instance" xsi:noNamespaceSchemaLocation="http://sumo.dlr.de/xsd/sumoConfiguration.xsd">

    <input>
        <net-file value="sim_cfg_grid_2_lanes/grid.net.xml"/>
        <route-files value="sim_cfg_grid_2_lanes/grid.rou.xml"/>
    </input>

    <output>
        <tripinfo-output value="sim_cfg_grid_2_lanes/tripinfo2.xml"/>
    </output>

    <time>
        <begin value="0"/>
        <end value="500"/>
        <step-length value="0.1"/>
    </time>

    <traci_server>
        <remote-port value="49199"/>
    </traci_server>

    <gui_only>
        <gui-settings-file value="sim_cfg_grid_2_lanes/gui_settings.xml"/>
    </gui_only>

</configuration>
-->

<tripinfos xmlns:xsi="http://www.w3.org/2001/XMLSchema-instance" xsi:noNamespaceSchemaLocation="http://sumo.dlr.de/xsd/tripinfo_file.xsd">
    <tripinfo id="flow1.1" depart="2.70" departLane="A3B3_0" departPos="4.10" departSpeed="0.00" departDelay="1.70" arrival="50.60" arrivalLane="D3E3_1" arrivalPos="79.20" arrivalSpeed="14.21" duration="47.90" routeLength="375.10" waitingTime="8.40" waitingCount="2" stopTime="0.00" timeLoss="21.65" rerouteNo="0" devices="tripinfo_flow1.1" vType="vtypeauto" speedFactor="1.03" vaporized=""/>
    <tripinfo id="flow1.0" depart="0.00" departLane="A3B3_0" departPos="4.10" departSpeed="0.00" departDelay="0.00" arrival="51.10" arrivalLane="D3E3_0" arrivalPos="79.20" arrivalSpeed="13.00" duration="51.10" routeLength="375.10" waitingTime="10.70" waitingCount="2" stopTime="0.00" timeLoss="22.24" rerouteNo="0" devices="tripinfo_flow1.0" vType="vtypeauto" speedFactor="0.94" vaporized=""/>
    <tripinfo id="flow1.3" depart="8.20" departLane="A3B3_0" departPos="4.10" departSpeed="0.00" departDelay="5.20" arrival="52.00" arrivalLane="D3E3_1" arrivalPos="79.20" arrivalSpeed="15.04" duration="43.80" routeLength="375.10" waitingTime="0.00" waitingCount="0" stopTime="0.00" timeLoss="19.05" rerouteNo="0" devices="tripinfo_flow1.3" vType="vtypeauto" speedFactor="1.09" vaporized=""/>
    <tripinfo id="flow1.2" depart="5.40" departLane="A3B3_0" departPos="4.10" departSpeed="0.00" departDelay="3.40" arrival="52.80" arrivalLane="D3E3_0" arrivalPos="79.20" arrivalSpeed="12.18" duration="47.40" routeLength="375.10" waitingTime="0.00" waitingCount="0" stopTime="0.00" timeLoss="16.91" rerouteNo="0" devices="tripinfo_flow1.2" vType="vtypeauto" speedFactor="0.89" vaporized=""/>
    <tripinfo id="flow1.6" depart="16.60" departLane="A3B3_0" departPos="4.10" departSpeed="0.00" departDelay="10.60" arrival="53.40" arrivalLane="D3E3_1" arrivalPos="79.20" arrivalSpeed="16.05" duration="36.80" routeLength="375.10" waitingTime="0.00" waitingCount="0" stopTime="0.00" timeLoss="13.49" rerouteNo="0" devices="tripinfo_flow1.6" vType="vtypeauto" speedFactor="1.16" vaporized=""/>
    <tripinfo id="flow1.4" depart="11.00" departLane="A3B3_0" departPos="4.10" departSpeed="0.00" departDelay="7.00" arrival="54.30" arrivalLane="D3E3_0" arrivalPos="79.20" arrivalSpeed="15.18" duration="43.30" routeLength="375.10" waitingTime="0.00" waitingCount="0" stopTime="0.00" timeLoss="19.21" rerouteNo="0" devices="tripinfo_flow1.4" vType="vtypeauto" speedFactor="1.12" vaporized=""/>
    <tripinfo id="flow1.7" depart="19.40" departLane="A3B3_0" departPos="4.10" departSpeed="0.00" departDelay="12.40" arrival="55.20" arrivalLane="D3E3_1" arrivalPos="79.20" arrivalSpeed="13.48" duration="35.80" routeLength="375.10" waitingTime="0.00" waitingCount="0" stopTime="0.00" timeLoss="8.08" rerouteNo="0" devices="tripinfo_flow1.7" vType="vtypeauto" speedFactor="0.97" vaporized=""/>
    <tripinfo id="flow1.5" depart="13.80" departLane="A3B3_0" departPos="4.10" departSpeed="0.00" departDelay="8.80" arrival="56.10" arrivalLane="D3E3_0" arrivalPos="79.20" arrivalSpeed="12.15" duration="42.30" routeLength="375.10" waitingTime="0.00" waitingCount="0" stopTime="0.00" timeLoss="11.53" rerouteNo="0" devices="tripinfo_flow1.5" vType="vtypeauto" speedFactor="0.88" vaporized=""/>
    <tripinfo id="flow1.8" depart="22.10" departLane="A3B3_0" departPos="4.10" departSpeed="0.00" departDelay="14.10" arrival="57.80" arrivalLane="D3E3_0" arrivalPos="79.20" arrivalSpeed="12.04" duration="35.70" routeLength="375.10" waitingTime="0.00" waitingCount="0" stopTime="0.00" timeLoss="4.69" rerouteNo="0" devices="tripinfo_flow1.8" vType="vtypeauto" speedFactor="0.87" vaporized=""/>
    <tripinfo id="flow2.0" depart="0.00" departLane="A0A1_0" departPos="4.10" departSpeed="0.00" departDelay="0.00" arrival="59.20" arrivalLane="C3D3_0" arrivalPos="79.20" arrivalSpeed="13.98" duration="59.20" routeLength="540.89" waitingTime="5.70" waitingCount="1" stopTime="0.00" timeLoss="17.14" rerouteNo="0" devices="tripinfo_flow2.0" vType="vtypeauto" speedFactor="1.01" vaporized=""/>
    <tripinfo id="flow1.9" depart="24.90" departLane="A3B3_0" departPos="4.10" departSpeed="0.00" departDelay="15.90" arrival="59.30" arrivalLane="D3E3_0" arrivalPos="79.20" arrivalSpeed="14.84" duration="34.40" routeLength="375.10" waitingTime="0.00" waitingCount="0" stopTime="0.00" timeLoss="10.48" rerouteNo="0" devices="tripinfo_flow1.9" vType="vtypeauto" speedFactor="1.13" vaporized=""/>
    <tripinfo id="flow1.10" depart="27.70" departLane="A3B3_0" departPos="4.10" departSpeed="0.00" departDelay="17.70" arrival="60.70" arrivalLane="D3E3_0" arrivalPos="79.20" arrivalSpeed="15.92" duration="33.00" routeLength="375.10" waitingTime="0.00" waitingCount="0" stopTime="0.00" timeLoss="9.52" rerouteNo="0" devices="tripinfo_flow1.10" vType="vtypeauto" speedFactor="1.15" vaporized=""/>
    <tripinfo id="flow1.12" depart="33.30" departLane="A3B3_0" departPos="4.10" departSpeed="0.00" departDelay="21.30" arrival="72.50" arrivalLane="D3E3_1" arrivalPos="79.20" arrivalSpeed="16.29" duration="39.20" routeLength="375.10" waitingTime="6.40" waitingCount="1" stopTime="0.00" timeLoss="16.28" rerouteNo="0" devices="tripinfo_flow1.12" vType="vtypeauto" speedFactor="1.18" vaporized=""/>
    <tripinfo id="flow1.11" depart="30.50" departLane="A3B3_0" departPos="4.10" departSpeed="0.00" departDelay="19.50" arrival="74.10" arrivalLane="D3E3_0" arrivalPos="79.20" arrivalSpeed="13.72" duration="43.60" routeLength="375.10" waitingTime="8.50" waitingCount="1" stopTime="0.00" timeLoss="16.37" rerouteNo="0" devices="tripinfo_flow1.11" vType="vtypeauto" speedFactor="0.99" vaporized=""/>
    <tripinfo id="flow1.14" depart="38.90" departLane="A3B3_0" departPos="4.10" departSpeed="0.00" departDelay="24.90" arrival="75.00" arrivalLane="D3E3_1" arrivalPos="79.20" arrivalSpeed="14.35" duration="36.10" routeLength="375.10" waitingTime="0.00" waitingCount="0" stopTime="0.00" timeLoss="10.08" rerouteNo="0" devices="tripinfo_flow1.14" vType="vtypeauto" speedFactor="1.04" vaporized=""/>
    <tripinfo id="flow1.13" depart="36.10" departLane="A3B3_0" departPos="4.10" departSpeed="0.00" departDelay="23.10" arrival="75.60" arrivalLane="D3E3_0" arrivalPos="79.20" arrivalSpeed="14.22" duration="39.50" routeLength="375.10" waitingTime="0.00" waitingCount="0" stopTime="0.00" timeLoss="13.25" rerouteNo="0" devices="tripinfo_flow1.13" vType="vtypeauto" speedFactor="1.03" vaporized=""/>
    <tripinfo id="flow1.15" depart="41.60" departLane="A3B3_0" departPos="4.10" departSpeed="0.00" departDelay="26.60" arrival="77.20" arrivalLane="D3E3_0" arrivalPos="79.20" arrivalSpeed="13.78" duration="35.60" routeLength="375.10" waitingTime="0.00" waitingCount="0" stopTime="0.00" timeLoss="8.51" rerouteNo="0" devices="tripinfo_flow1.15" vType="vtypeauto" speedFactor="1.00" vaporized=""/>
    <tripinfo id="flow1.17" depart="47.10" departLane="A3B3_0" departPos="4.10" departSpeed="0.00" departDelay="30.10" arrival="77.70" arrivalLane="D3E3_1" arrivalPos="79.20" arrivalSpeed="14.01" duration="30.60" routeLength="375.10" waitingTime="0.00" waitingCount="0" stopTime="0.00" timeLoss="3.98" rerouteNo="0" devices="tripinfo_flow1.17" vType="vtypeauto" speedFactor="1.02" vaporized=""/>
    <tripinfo id="flow2.1" depart="2.80" departLane="A0A1_0" departPos="4.10" departSpeed="0.00" departDelay="1.80" arrival="79.90" arrivalLane="C3D3_0" arrivalPos="79.20" arrivalSpeed="11.42" duration="77.10" routeLength="540.89" waitingTime="11.50" waitingCount="1" stopTime="0.00" timeLoss="25.97" rerouteNo="0" devices="tripinfo_flow2.1" vType="vtypeauto" speedFactor="0.83" vaporized=""/>
    <tripinfo id="flow1.16" depart="44.30" departLane="A3B3_0" departPos="4.10" departSpeed="0.00" departDelay="28.30" arrival="80.60" arrivalLane="D3E3_0" arrivalPos="79.20" arrivalSpeed="11.81" duration="36.30" routeLength="375.10" waitingTime="0.00" waitingCount="0" stopTime="0.00" timeLoss="4.51" rerouteNo="0" devices="tripinfo_flow1.16" vType="vtypeauto" speedFactor="0.85" vaporized=""/>
    <tripinfo id="flow2.2" depart="5.60" departLane="A0A1_0" departPos="4.10" departSpeed="0.00" departDelay="3.60" arrival="81.50" arrivalLane="C3D3_0" arrivalPos="79.20" arrivalSpeed="12.97" duration="75.90" routeLength="540.89" waitingTime="7.20" waitingCount="1" stopTime="0.00" timeLoss="30.47" rerouteNo="0" devices="tripinfo_flow2.2" vType="vtypeauto" speedFactor="0.94" vaporized=""/>
    <tripinfo id="flow2.3" depart="8.40" departLane="A0A1_0" departPos="4.10" departSpeed="0.00" departDelay="5.40" arrival="83.10" arrivalLane="C3D3_0" arrivalPos="79.20" arrivalSpeed="14.16" duration="74.70" routeLength="540.89" waitingTime="5.50" waitingCount="1" stopTime="0.00" timeLoss="33.22" rerouteNo="0" devices="tripinfo_flow2.3" vType="vtypeauto" speedFactor="1.03" vaporized=""/>
    <tripinfo id="flow2.9" depart="25.20" departLane="A0A1_0" departPos="4.10" departSpeed="0.00" departDelay="16.20" arrival="86.40" arrivalLane="C3D3_0" arrivalPos="79.20" arrivalSpeed="12.89" duration="61.20" routeLength="540.89" waitingTime="0.00" waitingCount="0" stopTime="0.00" timeLoss="15.53" rerouteNo="0" devices="tripinfo_flow2.9" vType="vtypeauto" speedFactor="0.93" vaporized=""/>
    <tripinfo id="flow2.4" depart="11.30" departLane="A0A1_0" departPos="4.10" departSpeed="0.00" departDelay="7.30" arrival="88.00" arrivalLane="C3D3_0" arrivalPos="79.20" arrivalSpeed="13.76" duration="76.70" routeLength="540.89" waitingTime="4.00" waitingCount="1" stopTime="0.00" timeLoss="33.74" rerouteNo="0" devices="tripinfo_flow2.4" vType="vtypeauto" speedFactor="0.99" vaporized=""/>
    <tripinfo id="flow2.10" depart="27.90" departLane="A0A1_0" departPos="4.10" departSpeed="0.00" departDelay="17.90" arrival="90.40" arrivalLane="C3D3_0" arrivalPos="79.20" arrivalSpeed="13.90" duration="62.50" routeLength="540.89" waitingTime="1.30" waitingCount="1" stopTime="0.00" timeLoss="20.16" rerouteNo="0" devices="tripinfo_flow2.10" vType="vtypeauto" speedFactor="1.01" vaporized=""/>
    <tripinfo id="flow2.5" depart="14.10" departLane="A0A1_0" departPos="4.10" departSpeed="0.00" departDelay="9.10" arrival="103.10" arrivalLane="C3D3_0" arrivalPos="79.20" arrivalSpeed="12.98" duration="89.00" routeLength="540.89" waitingTime="11.10" waitingCount="2" stopTime="0.00" timeLoss="43.81" rerouteNo="0" devices="tripinfo_flow2.5" vType="vtypeauto" speedFactor="0.94" vaporized=""/>
    <tripinfo id="flow2.11" depart="30.70" departLane="A0A1_0" departPos="4.10" departSpeed="0.00" departDelay="19.70" arrival="104.70" arrivalLane="C3D3_0" arrivalPos="79.20" arrivalSpeed="14.16" duration="74.00" routeLength="540.89" waitingTime="7.90" waitingCount="2" stopTime="0.00" timeLoss="32.38" rerouteNo="0" devices="tripinfo_flow2.11" vType="vtypeauto" speedFactor="1.02" vaporized=""/>
    <tripinfo id="flow2.6" depart="16.90" departLane="A0A1_0" departPos="4.10" departSpeed="0.00" departDelay="10.90" arrival="106.80" arrivalLane="C3D3_0" arrivalPos="79.20" arrivalSpeed="14.06" duration="89.90" routeLength="540.89" waitingTime="5.50" waitingCount="3" stopTime="0.00" timeLoss="48.07" rerouteNo="0" devices="tripinfo_flow2.6" vType="vtypeauto" speedFactor="1.02" vaporized=""/>
    <tripinfo id="flow2.12" depart="33.40" departLane="A0A1_0" departPos="4.10" departSpeed="0.00" departDelay="21.40" arrival="108.50" arrivalLane="C3D3_0" arrivalPos="79.20" arrivalSpeed="15.22" duration="75.10" routeLength="540.89" waitingTime="8.20" waitingCount="2" stopTime="0.00" timeLoss="36.43" rerouteNo="0" devices="tripinfo_flow2.12" vType="vtypeauto" speedFactor="1.10" vaporized=""/>
    <tripinfo id="flow2.7" depart="19.60" departLane="A0A1_0" departPos="4.10" departSpeed="0.00" departDelay="12.60" arrival="111.80" arrivalLane="C3D3_0" arrivalPos="79.20" arrivalSpeed="12.26" duration="92.20" routeLength="540.89" waitingTime="5.40" waitingCount="2" stopTime="0.00" timeLoss="44.37" rerouteNo="0" devices="tripinfo_flow2.7" vType="vtypeauto" speedFactor="0.89" vaporized=""/>
    <tripinfo id="flow2.14" depart="39.00" departLane="A0A1_0" departPos="4.10" departSpeed="0.00" departDelay="25.00" arrival="113.40" arrivalLane="C3D3_0" arrivalPos="79.20" arrivalSpeed="14.42" duration="74.40" routeLength="540.89" waitingTime="13.40" waitingCount="1" stopTime="0.00" timeLoss="33.61" rerouteNo="0" devices="tripinfo_flow2.14" vType="vtypeauto" speedFactor="1.04" vaporized=""/>
    <tripinfo id="flow2.8" depart="22.40" departLane="A0A1_0" departPos="4.10" departSpeed="0.00" departDelay="14.40" arrival="116.30" arrivalLane="C3D3_0" arrivalPos="79.20" arrivalSpeed="12.73" duration="93.90" routeLength="540.89" waitingTime="3.70" waitingCount="4" stopTime="0.00" timeLoss="47.45" rerouteNo="0" devices="tripinfo_flow2.8" vType="vtypeauto" speedFactor="0.92" vaporized=""/>
    <tripinfo id="flow2.13" depart="36.20" departLane="A0A1_0" departPos="4.10" departSpeed="0.00" departDelay="23.20" arrival="118.20" arrivalLane="C3D3_0" arrivalPos="79.20" arrivalSpeed="13.25" duration="82.00" routeLength="540.89" waitingTime="0.00" waitingCount="0" stopTime="0.00" timeLoss="37.47" rerouteNo="0" devices="tripinfo_flow2.13" vType="vtypeauto" speedFactor="0.96" vaporized=""/>
    <tripinfo id="flow0.0" depart="0.00" departLane="B4B3_0" departPos="4.10" departSpeed="0.00" departDelay="0.00" arrival="120.00" arrivalLane="B3A3_1" arrivalPos="79.20" arrivalSpeed="14.72" duration="120.00" routeLength="570.75" waitingTime="58.50" waitingCount="2" stopTime="0.00" timeLoss="79.29" rerouteNo="0" devices="tripinfo_flow0.0" vType="vtypeauto" speedFactor="1.06" vaporized=""/>
    <tripinfo id="flow2.16" depart="44.60" departLane="A0A1_0" departPos="4.10" departSpeed="0.00" departDelay="28.60" arrival="121.30" arrivalLane="C3D3_0" arrivalPos="79.20" arrivalSpeed="11.84" duration="76.70" routeLength="540.89" waitingTime="9.10" waitingCount="1" stopTime="0.00" timeLoss="26.96" rerouteNo="0" devices="tripinfo_flow2.16" vType="vtypeauto" speedFactor="0.85" vaporized=""/>
    <tripinfo id="flow2.15" depart="41.80" departLane="A0A1_0" departPos="4.10" departSpeed="0.00" departDelay="26.80" arrival="123.40" arrivalLane="C3D3_0" arrivalPos="79.20" arrivalSpeed="12.44" duration="81.60" routeLength="540.89" waitingTime="2.80" waitingCount="2" stopTime="0.00" timeLoss="34.29" rerouteNo="0" devices="tripinfo_flow2.15" vType="vtypeauto" speedFactor="0.90" vaporized=""/>
    <tripinfo id="flow2.17" depart="47.50" departLane="A0A1_0" departPos="4.10" departSpeed="0.00" departDelay="30.50" arrival="124.90" arrivalLane="C3D3_0" arrivalPos="79.20" arrivalSpeed="15.16" duration="77.40" routeLength="540.89" waitingTime="0.00" waitingCount="0" stopTime="0.00" timeLoss="38.61" rerouteNo="0" devices="tripinfo_flow2.17" vType="vtypeauto" speedFactor="1.10" vaporized=""/>
    <tripinfo id="flow2.18" depart="50.20" departLane="A0A1_0" departPos="4.10" departSpeed="0.00" departDelay="32.20" arrival="127.90" arrivalLane="C3D3_0" arrivalPos="79.20" arrivalSpeed="12.38" duration="77.70" routeLength="540.89" waitingTime="8.90" waitingCount="1" stopTime="0.00" timeLoss="30.32" rerouteNo="0" devices="tripinfo_flow2.18" vType="vtypeauto" speedFactor="0.90" vaporized=""/>
    <tripinfo id="flow0.8" depart="14.40" departLane="B4B3_0" departPos="4.10" departSpeed="0.00" departDelay="6.40" arrival="129.40" arrivalLane="B3A3_1" arrivalPos="79.20" arrivalSpeed="11.45" duration="115.00" routeLength="570.75" waitingTime="40.80" waitingCount="2" stopTime="0.00" timeLoss="62.71" rerouteNo="0" devices="tripinfo_flow0.8" vType="vtypeauto" speedFactor="0.83" vaporized=""/>
    <tripinfo id="flow2.19" depart="53.00" departLane="A0A1_0" departPos="4.10" departSpeed="0.00" departDelay="34.00" arrival="129.60" arrivalLane="C3D3_0" arrivalPos="79.20" arrivalSpeed="13.39" duration="76.60" routeLength="540.89" waitingTime="5.00" waitingCount="1" stopTime="0.00" timeLoss="32.76" rerouteNo="0" devices="tripinfo_flow2.19" vType="vtypeauto" speedFactor="0.97" vaporized=""/>
    <tripinfo id="flow0.9" depart="17.30" departLane="B4B3_0" departPos="4.10" departSpeed="0.00" departDelay="8.30" arrival="131.00" arrivalLane="B3A3_1" arrivalPos="79.20" arrivalSpeed="13.09" duration="113.70" routeLength="570.75" waitingTime="34.00" waitingCount="3" stopTime="0.00" timeLoss="68.11" rerouteNo="0" devices="tripinfo_flow0.9" vType="vtypeauto" speedFactor="0.95" vaporized=""/>
    <tripinfo id="flow2.20" depart="55.80" departLane="A0A1_0" departPos="4.10" departSpeed="0.00" departDelay="35.80" arrival="131.70" arrivalLane="C3D3_0" arrivalPos="79.20" arrivalSpeed="14.09" duration="75.90" routeLength="540.89" waitingTime="8.60" waitingCount="1" stopTime="0.00" timeLoss="34.01" rerouteNo="0" devices="tripinfo_flow2.20" vType="vtypeauto" speedFactor="1.02" vaporized=""/>
    <tripinfo id="flow0.11" depart="20.20" departLane="B4B3_0" departPos="4.10" departSpeed="0.00" departDelay="9.20" arrival="132.40" arrivalLane="B3A3_1" arrivalPos="79.20" arrivalSpeed="15.54" duration="112.20" routeLength="570.75" waitingTime="29.90" waitingCount="4" stopTime="0.00" timeLoss="75.34" rerouteNo="0" devices="tripinfo_flow0.11" vType="vtypeauto" speedFactor="1.17" vaporized=""/>
    <tripinfo id="flow2.23" depart="64.10" departLane="A0A1_0" departPos="4.10" departSpeed="0.00" departDelay="41.10" arrival="134.30" arrivalLane="C3D3_0" arrivalPos="79.20" arrivalSpeed="13.41" duration="70.20" routeLength="540.89" waitingTime="0.00" waitingCount="0" stopTime="0.00" timeLoss="26.46" rerouteNo="0" devices="tripinfo_flow2.23" vType="vtypeauto" speedFactor="0.97" vaporized=""/>
    <tripinfo id="flow0.12" depart="24.20" departLane="B4B3_0" departPos="4.10" departSpeed="0.00" departDelay="12.20" arrival="135.10" arrivalLane="B3A3_1" arrivalPos="79.20" arrivalSpeed="13.40" duration="110.90" routeLength="570.75" waitingTime="26.00" waitingCount="3" stopTime="0.00" timeLoss="66.46" rerouteNo="0" devices="tripinfo_flow0.12" vType="vtypeauto" speedFactor="0.97" vaporized=""/>
    <tripinfo id="flow2.24" depart="66.90" departLane="A0A1_0" departPos="4.10" departSpeed="0.00" departDelay="42.90" arrival="136.70" arrivalLane="C3D3_0" arrivalPos="79.20" arrivalSpeed="13.16" duration="69.80" routeLength="540.89" waitingTime="0.00" waitingCount="0" stopTime="0.00" timeLoss="25.24" rerouteNo="0" devices="tripinfo_flow2.24" vType="vtypeauto" speedFactor="0.96" vaporized=""/>
    <tripinfo id="flow2.21" depart="58.60" departLane="A0A1_0" departPos="4.10" departSpeed="0.00" departDelay="37.60" arrival="139.50" arrivalLane="C3D3_0" arrivalPos="79.20" arrivalSpeed="12.17" duration="80.90" routeLength="540.89" waitingTime="6.70" waitingCount="1" stopTime="0.00" timeLoss="32.64" rerouteNo="0" devices="tripinfo_flow2.21" vType="vtypeauto" speedFactor="0.88" vaporized=""/>
    <tripinfo id="flow0.13" depart="26.90" departLane="B4B3_0" departPos="4.10" departSpeed="0.00" departDelay="13.90" arrival="141.30" arrivalLane="B3A3_1" arrivalPos="79.20" arrivalSpeed="12.45" duration="114.40" routeLength="570.75" waitingTime="30.00" waitingCount="3" stopTime="0.00" timeLoss="66.45" rerouteNo="0" devices="tripinfo_flow0.13" vType="vtypeauto" speedFactor="0.90" vaporized=""/>
    <tripinfo id="flow2.25" depart="69.70" departLane="A0A1_0" departPos="4.10" departSpeed="0.00" departDelay="44.70" arrival="141.30" arrivalLane="C3D3_0" arrivalPos="79.20" arrivalSpeed="13.60" duration="71.60" routeLength="540.89" waitingTime="0.00" waitingCount="0" stopTime="0.00" timeLoss="28.27" rerouteNo="0" devices="tripinfo_flow2.25" vType="vtypeauto" speedFactor="0.98" vaporized=""/>
    <tripinfo id="flow2.22" depart="61.30" departLane="A0A1_0" departPos="4.10" departSpeed="0.00" departDelay="39.30" arrival="143.10" arrivalLane="C3D3_0" arrivalPos="79.20" arrivalSpeed="14.41" duration="81.80" routeLength="540.89" waitingTime="2.00" waitingCount="1" stopTime="0.00" timeLoss="40.78" rerouteNo="0" devices="tripinfo_flow2.22" vType="vtypeauto" speedFactor="1.04" vaporized=""/>
    <tripinfo id="flow2.26" depart="72.50" departLane="A0A1_0" departPos="4.10" departSpeed="0.00" departDelay="46.50" arrival="145.40" arrivalLane="C3D3_0" arrivalPos="79.20" arrivalSpeed="14.27" duration="72.90" routeLength="540.89" waitingTime="1.30" waitingCount="2" stopTime="0.00" timeLoss="31.68" rerouteNo="0" devices="tripinfo_flow2.26" vType="vtypeauto" speedFactor="1.03" vaporized=""/>
    <tripinfo id="flow2.27" depart="75.30" departLane="A0A1_0" departPos="4.10" departSpeed="0.00" departDelay="48.30" arrival="148.40" arrivalLane="C3D3_0" arrivalPos="79.20" arrivalSpeed="13.41" duration="73.10" routeLength="540.89" waitingTime="4.40" waitingCount="1" stopTime="0.00" timeLoss="29.08" rerouteNo="0" devices="tripinfo_flow2.27" vType="vtypeauto" speedFactor="0.97" vaporized=""/>
    <tripinfo id="flow2.28" depart="78.00" departLane="A0A1_0" departPos="4.10" departSpeed="0.00" departDelay="50.00" arrival="150.70" arrivalLane="C3D3_0" arrivalPos="79.20" arrivalSpeed="13.89" duration="72.70" routeLength="540.89" waitingTime="1.30" waitingCount="1" stopTime="0.00" timeLoss="30.18" rerouteNo="0" devices="tripinfo_flow2.28" vType="vtypeauto" speedFactor="1.00" vaporized=""/>
    <tripinfo id="flow1.18" depart="49.90" departLane="A3B3_0" departPos="4.10" departSpeed="0.00" departDelay="31.90" arrival="174.70" arrivalLane="D3E3_0" arrivalPos="79.20" arrivalSpeed="13.80" duration="124.80" routeLength="375.10" waitingTime="80.80" waitingCount="3" stopTime="0.00" timeLoss="97.69" rerouteNo="0" devices="tripinfo_flow1.18" vType="vtypeauto" speedFactor="1.00" vaporized=""/>
    <tripinfo id="flow1.19" depart="52.70" departLane="A3B3_0" departPos="4.10" departSpeed="0.00" departDelay="33.70" arrival="174.70" arrivalLane="D3E3_1" arrivalPos="79.20" arrivalSpeed="14.10" duration="122.00" routeLength="375.10" waitingTime="78.20" waitingCount="3" stopTime="0.00" timeLoss="95.56" rerouteNo="0" devices="tripinfo_flow1.19" vType="vtypeauto" speedFactor="1.02" vaporized=""/>
    <tripinfo id="flow1.20" depart="55.50" departLane="A3B3_0" departPos="4.10" departSpeed="0.00" departDelay="35.50" arrival="176.20" arrivalLane="D3E3_0" arrivalPos="79.20" arrivalSpeed="15.53" duration="120.70" routeLength="375.10" waitingTime="64.30" waitingCount="3" stopTime="0.00" timeLoss="96.50" rerouteNo="0" devices="tripinfo_flow1.20" vType="vtypeauto" speedFactor="1.12" vaporized=""/>
    <tripinfo id="flow1.21" depart="58.30" departLane="A3B3_0" departPos="4.10" departSpeed="0.00" departDelay="37.30" arrival="176.40" arrivalLane="D3E3_1" arrivalPos="79.20" arrivalSpeed="12.94" duration="118.10" routeLength="375.10" waitingTime="61.20" waitingCount="3" stopTime="0.00" timeLoss="89.30" rerouteNo="0" devices="tripinfo_flow1.21" vType="vtypeauto" speedFactor="0.94" vaporized=""/>
    <tripinfo id="flow1.23" depart="63.90" departLane="A3B3_0" departPos="4.10" departSpeed="0.00" departDelay="40.90" arrival="177.90" arrivalLane="D3E3_1" arrivalPos="79.20" arrivalSpeed="14.09" duration="114.00" routeLength="375.10" waitingTime="52.90" waitingCount="2" stopTime="0.00" timeLoss="87.60" rerouteNo="0" devices="tripinfo_flow1.23" vType="vtypeauto" speedFactor="1.02" vaporized=""/>
    <tripinfo id="flow1.22" depart="61.10" departLane="A3B3_0" departPos="4.10" departSpeed="0.00" departDelay="39.10" arrival="178.10" arrivalLane="D3E3_0" arrivalPos="79.20" arrivalSpeed="12.67" duration="117.00" routeLength="375.10" waitingTime="55.60" waitingCount="2" stopTime="0.00" timeLoss="87.40" rerouteNo="0" devices="tripinfo_flow1.22" vType="vtypeauto" speedFactor="0.91" vaporized=""/>
    <tripinfo id="flow1.25" depart="69.50" departLane="A3B3_0" departPos="4.10" departSpeed="0.00" departDelay="44.50" arrival="179.40" arrivalLane="D3E3_1" arrivalPos="79.20" arrivalSpeed="14.31" duration="109.90" routeLength="375.10" waitingTime="47.10" waitingCount="2" stopTime="0.00" timeLoss="83.72" rerouteNo="0" devices="tripinfo_flow1.25" vType="vtypeauto" speedFactor="1.03" vaporized=""/>
    <tripinfo id="flow1.24" depart="66.70" departLane="A3B3_0" departPos="4.10" departSpeed="0.00" departDelay="42.70" arrival="179.60" arrivalLane="D3E3_0" arrivalPos="79.20" arrivalSpeed="14.55" duration="112.90" routeLength="375.10" waitingTime="49.90" waitingCount="2" stopTime="0.00" timeLoss="87.23" rerouteNo="0" devices="tripinfo_flow1.24" vType="vtypeauto" speedFactor="1.06" vaporized=""/>
    <tripinfo id="flow1.27" depart="75.10" departLane="A3B3_0" departPos="4.10" departSpeed="0.00" departDelay="48.10" arrival="180.90" arrivalLane="D3E3_1" arrivalPos="79.20" arrivalSpeed="14.09" duration="105.80" routeLength="375.10" waitingTime="41.70" waitingCount="2" stopTime="0.00" timeLoss="79.24" rerouteNo="0" devices="tripinfo_flow1.27" vType="vtypeauto" speedFactor="1.02" vaporized=""/>
    <tripinfo id="flow1.26" depart="72.30" departLane="A3B3_0" departPos="4.10" departSpeed="0.00" departDelay="46.30" arrival="181.00" arrivalLane="D3E3_0" arrivalPos="79.20" arrivalSpeed="15.03" duration="108.70" routeLength="375.10" waitingTime="44.40" waitingCount="2" stopTime="0.00" timeLoss="83.79" rerouteNo="0" devices="tripinfo_flow1.26" vType="vtypeauto" speedFactor="1.09" vaporized=""/>
    <tripinfo id="flow1.29" depart="80.70" departLane="A3B3_0" departPos="4.10" departSpeed="0.00" departDelay="51.70" arrival="182.50" arrivalLane="D3E3_1" arrivalPos="79.20" arrivalSpeed="13.90" duration="101.80" routeLength="375.10" waitingTime="36.50" waitingCount="2" stopTime="0.00" timeLoss="74.92" rerouteNo="0" devices="tripinfo_flow1.29" vType="vtypeauto" speedFactor="1.01" vaporized=""/>
    <tripinfo id="flow1.28" depart="77.90" departLane="A3B3_0" departPos="4.10" departSpeed="0.00" departDelay="49.90" arrival="182.60" arrivalLane="D3E3_0" arrivalPos="79.20" arrivalSpeed="13.46" duration="104.70" routeLength="375.10" waitingTime="39.30" waitingCount="2" stopTime="0.00" timeLoss="77.02" rerouteNo="0" devices="tripinfo_flow1.28" vType="vtypeauto" speedFactor="0.98" vaporized=""/>
    <tripinfo id="flow2.29" depart="80.70" departLane="A0A1_0" departPos="4.10" departSpeed="0.00" departDelay="51.70" arrival="182.70" arrivalLane="C3D3_0" arrivalPos="79.20" arrivalSpeed="13.26" duration="102.00" routeLength="540.89" waitingTime="23.60" waitingCount="2" stopTime="0.00" timeLoss="60.29" rerouteNo="0" devices="tripinfo_flow2.29" vType="vtypeauto" speedFactor="1.02" vaporized=""/>
    <tripinfo id="flow1.31" depart="85.80" departLane="A3B3_0" departPos="4.10" departSpeed="0.00" departDelay="54.80" arrival="183.90" arrivalLane="D3E3_1" arrivalPos="79.20" arrivalSpeed="15.12" duration="98.10" routeLength="375.10" waitingTime="32.10" waitingCount="2" stopTime="0.00" timeLoss="73.34" rerouteNo="0" devices="tripinfo_flow1.31" vType="vtypeauto" speedFactor="1.09" vaporized=""/>
    <tripinfo id="flow2.30" depart="83.50" departLane="A0A1_0" departPos="4.10" departSpeed="0.00" departDelay="53.50" arrival="184.30" arrivalLane="C3D3_0" arrivalPos="79.20" arrivalSpeed="11.55" duration="100.80" routeLength="540.89" waitingTime="16.60" waitingCount="2" stopTime="0.00" timeLoss="49.79" rerouteNo="0" devices="tripinfo_flow2.30" vType="vtypeauto" speedFactor="0.83" vaporized=""/>
    <tripinfo id="flow1.30" depart="83.00" departLane="A3B3_0" departPos="4.10" departSpeed="0.00" departDelay="53.00" arrival="184.60" arrivalLane="D3E3_0" arrivalPos="79.20" arrivalSpeed="12.28" duration="101.60" routeLength="375.10" waitingTime="34.80" waitingCount="2" stopTime="0.00" timeLoss="71.23" rerouteNo="0" devices="tripinfo_flow1.30" vType="vtypeauto" speedFactor="0.89" vaporized=""/>
    <tripinfo id="flow1.33" depart="90.10" departLane="A3B3_0" departPos="4.10" departSpeed="0.00" departDelay="57.10" arrival="185.40" arrivalLane="D3E3_1" arrivalPos="79.20" arrivalSpeed="14.67" duration="95.30" routeLength="375.10" waitingTime="28.20" waitingCount="2" stopTime="0.00" timeLoss="69.92" rerouteNo="0" devices="tripinfo_flow1.33" vType="vtypeauto" speedFactor="1.06" vaporized=""/>
    <tripinfo id="flow2.31" depart="86.30" departLane="A0A1_0" departPos="4.10" departSpeed="0.00" departDelay="55.30" arrival="185.80" arrivalLane="C3D3_0" arrivalPos="79.20" arrivalSpeed="14.10" duration="99.50" routeLength="540.89" waitingTime="14.80" waitingCount="2" stopTime="0.00" timeLoss="59.22" rerouteNo="0" devices="tripinfo_flow2.31" vType="vtypeauto" speedFactor="1.06" vaporized=""/>
    <tripinfo id="flow1.32" depart="87.30" departLane="A3B3_0" departPos="4.10" departSpeed="0.00" departDelay="55.30" arrival="186.20" arrivalLane="D3E3_0" arrivalPos="79.20" arrivalSpeed="12.51" duration="98.90" routeLength="375.10" waitingTime="31.10" waitingCount="2" stopTime="0.00" timeLoss="69.05" rerouteNo="0" devices="tripinfo_flow1.32" vType="vtypeauto" speedFactor="0.91" vaporized=""/>
    <tripinfo id="flow1.35" depart="94.10" departLane="A3B3_0" departPos="4.10" departSpeed="0.00" departDelay="59.10" arrival="187.00" arrivalLane="D3E3_1" arrivalPos="79.20" arrivalSpeed="14.03" duration="92.90" routeLength="375.10" waitingTime="26.10" waitingCount="1" stopTime="0.00" timeLoss="66.23" rerouteNo="0" devices="tripinfo_flow1.35" vType="vtypeauto" speedFactor="1.01" vaporized=""/>