<?xml version="1.0" encoding="UTF-8"?>

<!-- generated on 2024-10-24 22:49:54 by Eclipse SUMO sumo Version 1.20.0
<configuration xmlns:xsi="http://www.w3.org/2001/XMLSchema-instance" xsi:noNamespaceSchemaLocation="http://sumo.dlr.de/xsd/sumoConfiguration.xsd">

    <input>
        <net-file value="sim_cfg_grid_2_lanes/grid.net.xml"/>
        <route-files value="sim_cfg_grid_2_lanes/grid.rou.xml"/>
    </input>

    <output>
        <tripinfo-output value="sim_cfg_grid_2_lanes/tripinfo.xml"/>
    </output>

    <time>
        <begin value="0"/>
        <end value="500"/>
        <step-length value="0.1"/>
    </time>

    <traci_server>
        <remote-port value="51349"/>
    </traci_server>

    <gui_only>
        <gui-settings-file value="sim_cfg_grid_2_lanes/gui_settings.xml"/>
    </gui_only>

</configuration>
-->

<tripinfos xmlns:xsi="http://www.w3.org/2001/XMLSchema-instance" xsi:noNamespaceSchemaLocation="http://sumo.dlr.de/xsd/tripinfo_file.xsd">
    <tripinfo id="flow4.0" depart="1.30" departLane="C0C1_0" departPos="4.10" departSpeed="0.00" departDelay="1.30" arrival="49.70" arrivalLane="C3C4_0" arrivalPos="79.20" arrivalSpeed="14.22" duration="48.40" routeLength="375.10" waitingTime="9.30" waitingCount="2" stopTime="0.00" timeLoss="22.11" rerouteNo="0" devices="tripinfo_flow4.0" vType="vtypeauto" speedFactor="1.03" vaporized=""/>
    <tripinfo id="flow4.1" depart="4.20" departLane="C0C1_0" departPos="4.10" departSpeed="0.00" departDelay="3.20" arrival="49.70" arrivalLane="C3C4_1" arrivalPos="79.20" arrivalSpeed="14.25" duration="45.50" routeLength="375.10" waitingTime="3.00" waitingCount="1" stopTime="0.00" timeLoss="19.11" rerouteNo="0" devices="tripinfo_flow4.1" vType="vtypeauto" speedFactor="1.03" vaporized=""/>
    <tripinfo id="flow4.4" depart="13.30" departLane="C0C1_0" departPos="4.10" departSpeed="0.00" departDelay="9.30" arrival="51.40" arrivalLane="C3C4_1" arrivalPos="79.20" arrivalSpeed="13.89" duration="38.10" routeLength="375.10" waitingTime="0.00" waitingCount="0" stopTime="0.00" timeLoss="11.15" rerouteNo="0" devices="tripinfo_flow4.4" vType="vtypeauto" speedFactor="1.01" vaporized=""/>
    <tripinfo id="flow4.2" depart="7.10" departLane="C0C1_0" departPos="4.10" departSpeed="0.00" departDelay="5.10" arrival="52.20" arrivalLane="C3C4_0" arrivalPos="79.20" arrivalSpeed="12.95" duration="45.10" routeLength="375.10" waitingTime="0.00" waitingCount="0" stopTime="0.00" timeLoss="16.23" rerouteNo="0" devices="tripinfo_flow4.2" vType="vtypeauto" speedFactor="0.94" vaporized=""/>
    <tripinfo id="flow4.6" depart="19.00" departLane="C0C1_0" departPos="4.10" departSpeed="0.00" departDelay="13.00" arrival="53.00" arrivalLane="C3C4_1" arrivalPos="79.20" arrivalSpeed="13.81" duration="34.00" routeLength="375.10" waitingTime="0.00" waitingCount="0" stopTime="0.00" timeLoss="6.86" rerouteNo="0" devices="tripinfo_flow4.6" vType="vtypeauto" speedFactor="1.00" vaporized=""/>
    <tripinfo id="flow4.7" depart="21.90" departLane="C0C1_0" departPos="4.10" departSpeed="0.00" departDelay="14.90" arrival="54.50" arrivalLane="C3C4_1" arrivalPos="79.20" arrivalSpeed="15.13" duration="32.60" routeLength="375.10" waitingTime="0.00" waitingCount="0" stopTime="0.00" timeLoss="7.87" rerouteNo="0" devices="tripinfo_flow4.7" vType="vtypeauto" speedFactor="1.10" vaporized=""/>
    <tripinfo id="flow4.3" depart="10.00" departLane="C0C1_0" departPos="4.10" departSpeed="0.00" departDelay="7.00" arrival="54.70" arrivalLane="C3C4_0" arrivalPos="79.20" arrivalSpeed="12.02" duration="44.70" routeLength="375.10" waitingTime="0.00" waitingCount="0" stopTime="0.00" timeLoss="13.68" rerouteNo="0" devices="tripinfo_flow4.3" vType="vtypeauto" speedFactor="0.87" vaporized=""/>
    <tripinfo id="flow4.5" depart="16.20" departLane="C0C1_0" departPos="4.10" departSpeed="0.00" departDelay="11.20" arrival="56.30" arrivalLane="C3C4_0" arrivalPos="79.20" arrivalSpeed="12.46" duration="40.10" routeLength="375.10" waitingTime="0.00" waitingCount="0" stopTime="0.00" timeLoss="10.07" rerouteNo="0" devices="tripinfo_flow4.5" vType="vtypeauto" speedFactor="0.90" vaporized=""/>
    <tripinfo id="flow4.8" depart="24.80" departLane="C0C1_0" departPos="4.10" departSpeed="0.00" departDelay="16.80" arrival="57.80" arrivalLane="C3C4_0" arrivalPos="79.20" arrivalSpeed="14.95" duration="33.00" routeLength="375.10" waitingTime="0.00" waitingCount="0" stopTime="0.00" timeLoss="7.98" rerouteNo="0" devices="tripinfo_flow4.8" vType="vtypeauto" speedFactor="1.08" vaporized=""/>
    <tripinfo id="flow1.1" depart="2.70" departLane="A3B3_0" departPos="4.10" departSpeed="0.00" departDelay="1.70" arrival="79.90" arrivalLane="D3E3_1" arrivalPos="79.20" arrivalSpeed="13.01" duration="77.20" routeLength="375.10" waitingTime="36.50" waitingCount="2" stopTime="0.00" timeLoss="48.36" rerouteNo="0" devices="tripinfo_flow1.1" vType="vtypeauto" speedFactor="0.94" vaporized=""/>
    <tripinfo id="flow1.0" depart="0.00" departLane="A3B3_0" departPos="4.10" departSpeed="0.00" departDelay="0.00" arrival="80.20" arrivalLane="D3E3_0" arrivalPos="79.20" arrivalSpeed="12.99" duration="80.20" routeLength="375.10" waitingTime="39.70" waitingCount="2" stopTime="0.00" timeLoss="51.41" rerouteNo="0" devices="tripinfo_flow1.0" vType="vtypeauto" speedFactor="0.94" vaporized=""/>
    <tripinfo id="flow1.2" depart="5.40" departLane="A3B3_0" departPos="4.10" departSpeed="0.00" departDelay="3.40" arrival="81.40" arrivalLane="D3E3_0" arrivalPos="79.20" arrivalSpeed="13.88" duration="76.00" routeLength="375.10" waitingTime="29.00" waitingCount="1" stopTime="0.00" timeLoss="47.49" rerouteNo="0" devices="tripinfo_flow1.2" vType="vtypeauto@flow1.2" speedFactor="1.01" vaporized=""/>
    <tripinfo id="flow1.3" depart="8.20" departLane="A3B3_0" departPos="4.10" departSpeed="0.00" departDelay="5.20" arrival="81.40" arrivalLane="D3E3_1" arrivalPos="79.20" arrivalSpeed="13.44" duration="73.20" routeLength="375.10" waitingTime="29.00" waitingCount="1" stopTime="0.00" timeLoss="45.50" rerouteNo="0" devices="tripinfo_flow1.3" vType="vtypeauto" speedFactor="0.97" vaporized=""/>
    <tripinfo id="flow1.4" depart="11.00" departLane="A3B3_0" departPos="4.10" departSpeed="0.00" departDelay="7.00" arrival="82.50" arrivalLane="D3E3_0" arrivalPos="79.20" arrivalSpeed="13.91" duration="71.50" routeLength="375.10" waitingTime="26.90" waitingCount="1" stopTime="0.00" timeLoss="43.17" rerouteNo="0" devices="tripinfo_flow1.4" vType="vtypeauto@flow1.4" speedFactor="1.01" vaporized=""/>
    <tripinfo id="flow1.5" depart="13.80" departLane="A3B3_0" departPos="4.10" departSpeed="0.00" departDelay="8.80" arrival="83.00" arrivalLane="D3E3_1" arrivalPos="79.20" arrivalSpeed="13.49" duration="69.20" routeLength="375.10" waitingTime="27.20" waitingCount="1" stopTime="0.00" timeLoss="41.39" rerouteNo="0" devices="tripinfo_flow1.5" vType="vtypeauto" speedFactor="0.97" vaporized=""/>
    <tripinfo id="flow1.6" depart="16.60" departLane="A3B3_0" departPos="4.10" departSpeed="0.00" departDelay="10.60" arrival="83.70" arrivalLane="D3E3_0" arrivalPos="79.20" arrivalSpeed="13.93" duration="67.10" routeLength="375.10" waitingTime="25.00" waitingCount="1" stopTime="0.00" timeLoss="40.74" rerouteNo="0" devices="tripinfo_flow1.6" vType="vtypeauto@flow1.6" speedFactor="1.01" vaporized=""/>
    <tripinfo id="flow2.0" depart="0.00" departLane="A0A1_0" departPos="4.10" departSpeed="0.00" departDelay="0.00" arrival="83.80" arrivalLane="C3D3_0" arrivalPos="79.20" arrivalSpeed="11.02" duration="83.80" routeLength="540.89" waitingTime="18.20" waitingCount="3" stopTime="0.00" timeLoss="41.74" rerouteNo="0" devices="tripinfo_flow2.0" vType="vtypeauto" speedFactor="1.01" vaporized=""/>
    <tripinfo id="flow1.8" depart="22.20" departLane="A3B3_0" departPos="4.10" departSpeed="0.00" departDelay="14.20" arrival="84.40" arrivalLane="D3E3_1" arrivalPos="79.20" arrivalSpeed="15.38" duration="62.20" routeLength="375.10" waitingTime="17.00" waitingCount="2" stopTime="0.00" timeLoss="38.57" rerouteNo="0" devices="tripinfo_flow1.8" vType="vtypeauto" speedFactor="1.14" vaporized=""/>
    <tripinfo id="flow1.7" depart="19.40" departLane="A3B3_0" departPos="4.10" departSpeed="0.00" departDelay="12.40" arrival="84.80" arrivalLane="D3E3_0" arrivalPos="79.20" arrivalSpeed="13.95" duration="65.40" routeLength="375.10" waitingTime="18.80" waitingCount="2" stopTime="0.00" timeLoss="35.49" rerouteNo="0" devices="tripinfo_flow1.7" vType="vtypeauto@flow1.7" speedFactor="1.01" vaporized=""/>
    <tripinfo id="flow2.1" depart="2.80" departLane="A0A1_0" departPos="4.10" departSpeed="0.00" departDelay="1.80" arrival="85.00" arrivalLane="C3D3_0" arrivalPos="79.20" arrivalSpeed="12.56" duration="82.20" routeLength="540.89" waitingTime="6.20" waitingCount="1" stopTime="0.00" timeLoss="34.59" rerouteNo="0" devices="tripinfo_flow2.1" vType="vtypeauto@flow2.1" speedFactor="1.01" vaporized=""/>
    <tripinfo id="flow2.2" depart="5.60" departLane="A0A1_0" departPos="4.10" departSpeed="0.00" departDelay="3.60" arrival="86.10" arrivalLane="C3D3_0" arrivalPos="79.20" arrivalSpeed="13.17" duration="80.50" routeLength="540.89" waitingTime="3.90" waitingCount="1" stopTime="0.00" timeLoss="36.96" rerouteNo="0" devices="tripinfo_flow2.2" vType="vtypeauto@flow2.2" speedFactor="2.15" vaporized=""/>
    <tripinfo id="flow1.10" depart="27.80" departLane="A3B3_0" departPos="4.10" departSpeed="0.00" departDelay="17.80" arrival="86.10" arrivalLane="D3E3_1" arrivalPos="79.20" arrivalSpeed="13.46" duration="58.30" routeLength="375.10" waitingTime="6.90" waitingCount="1" stopTime="0.00" timeLoss="30.47" rerouteNo="0" devices="tripinfo_flow1.10" vType="vtypeauto" speedFactor="0.97" vaporized=""/>
    <tripinfo id="flow1.9" depart="25.00" departLane="A3B3_0" departPos="4.10" departSpeed="0.00" departDelay="16.00" arrival="86.30" arrivalLane="D3E3_0" arrivalPos="79.20" arrivalSpeed="13.97" duration="61.30" routeLength="375.10" waitingTime="9.70" waitingCount="1" stopTime="0.00" timeLoss="33.55" rerouteNo="0" devices="tripinfo_flow1.9" vType="vtypeauto@flow1.9" speedFactor="1.01" vaporized=""/>
    <tripinfo id="flow2.7" depart="19.50" departLane="A0A1_0" departPos="4.10" departSpeed="0.00" departDelay="12.50" arrival="87.50" arrivalLane="C3D3_0" arrivalPos="79.20" arrivalSpeed="14.62" duration="68.00" routeLength="540.89" waitingTime="0.00" waitingCount="0" stopTime="0.00" timeLoss="31.59" rerouteNo="0" devices="tripinfo_flow2.7" vType="vtypeauto" speedFactor="1.17" vaporized=""/>
    <tripinfo id="flow1.11" depart="30.60" departLane="A3B3_0" departPos="4.10" departSpeed="0.00" departDelay="19.60" arrival="87.50" arrivalLane="D3E3_0" arrivalPos="79.20" arrivalSpeed="13.98" duration="56.90" routeLength="375.10" waitingTime="5.10" waitingCount="1" stopTime="0.00" timeLoss="30.04" rerouteNo="0" devices="tripinfo_flow1.11" vType="vtypeauto@flow1.11" speedFactor="1.01" vaporized=""/>
    <tripinfo id="flow1.12" depart="33.30" departLane="A3B3_0" departPos="4.10" departSpeed="0.00" departDelay="21.30" arrival="87.60" arrivalLane="D3E3_1" arrivalPos="79.20" arrivalSpeed="13.48" duration="54.30" routeLength="375.10" waitingTime="2.40" waitingCount="1" stopTime="0.00" timeLoss="26.61" rerouteNo="0" devices="tripinfo_flow1.12" vType="vtypeauto" speedFactor="0.98" vaporized=""/>
    <tripinfo id="flow2.3" depart="8.40" departLane="A0A1_0" departPos="4.10" departSpeed="0.00" departDelay="5.40" arrival="89.10" arrivalLane="C3D3_0" arrivalPos="79.20" arrivalSpeed="12.29" duration="80.70" routeLength="540.89" waitingTime="0.90" waitingCount="1" stopTime="0.00" timeLoss="32.88" rerouteNo="0" devices="tripinfo_flow2.3" vType="vtypeauto" speedFactor="0.89" vaporized=""/>
    <tripinfo id="flow1.14" depart="38.80" departLane="A3B3_0" departPos="4.10" departSpeed="0.00" departDelay="24.80" arrival="89.10" arrivalLane="D3E3_1" arrivalPos="79.20" arrivalSpeed="15.12" duration="50.30" routeLength="375.10" waitingTime="0.00" waitingCount="0" stopTime="0.00" timeLoss="25.63" rerouteNo="0" devices="tripinfo_flow1.14" vType="vtypeauto" speedFactor="1.10" vaporized=""/>
    <tripinfo id="flow1.13" depart="36.10" departLane="A3B3_0" departPos="4.10" departSpeed="0.00" departDelay="23.10" arrival="89.60" arrivalLane="D3E3_0" arrivalPos="79.20" arrivalSpeed="11.49" duration="53.50" routeLength="375.10" waitingTime="0.00" waitingCount="0" stopTime="0.00" timeLoss="21.03" rerouteNo="0" devices="tripinfo_flow1.13" vType="vtypeauto" speedFactor="0.83" vaporized=""/>
    <tripinfo id="flow1.16" depart="44.40" departLane="A3B3_0" departPos="4.10" departSpeed="0.00" departDelay="28.40" arrival="90.60" arrivalLane="D3E3_1" arrivalPos="79.20" arrivalSpeed="13.90" duration="46.20" routeLength="375.10" waitingTime="0.00" waitingCount="0" stopTime="0.00" timeLoss="19.44" rerouteNo="0" devices="tripinfo_flow1.16" vType="vtypeauto" speedFactor="1.01" vaporized=""/>
    <tripinfo id="flow2.9" depart="25.10" departLane="A0A1_0" departPos="4.10" departSpeed="0.00" departDelay="16.10" arrival="90.70" arrivalLane="C3D3_0" arrivalPos="79.20" arrivalSpeed="12.22" duration="65.60" routeLength="540.89" waitingTime="0.00" waitingCount="0" stopTime="0.00" timeLoss="17.41" rerouteNo="0" devices="tripinfo_flow2.9" vType="vtypeauto" speedFactor="0.88" vaporized=""/>
    <tripinfo id="flow1.15" depart="41.60" departLane="A3B3_0" departPos="4.10" departSpeed="0.00" departDelay="26.60" arrival="91.10" arrivalLane="D3E3_0" arrivalPos="79.20" arrivalSpeed="14.06" duration="49.50" routeLength="375.10" waitingTime="0.00" waitingCount="0" stopTime="0.00" timeLoss="22.82" rerouteNo="0" devices="tripinfo_flow1.15" vType="vtypeauto" speedFactor="1.01" vaporized=""/>
    <tripinfo id="flow2.4" depart="11.10" departLane="A0A1_0" departPos="4.10" departSpeed="0.00" departDelay="7.10" arrival="92.20" arrivalLane="C3D3_0" arrivalPos="79.20" arrivalSpeed="14.64" duration="81.10" routeLength="540.89" waitingTime="0.00" waitingCount="0" stopTime="0.00" timeLoss="44.99" rerouteNo="0" devices="tripinfo_flow2.4" vType="vtypeauto" speedFactor="1.18" vaporized=""/>
    <tripinfo id="flow1.17" depart="47.20" departLane="A3B3_0" departPos="4.10" departSpeed="0.00" departDelay="30.20" arrival="92.40" arrivalLane="D3E3_1" arrivalPos="79.20" arrivalSpeed="12.95" duration="45.20" routeLength="375.10" waitingTime="0.00" waitingCount="0" stopTime="0.00" timeLoss="16.48" rerouteNo="0" devices="tripinfo_flow1.17" vType="vtypeauto" speedFactor="0.94" vaporized=""/>
    <tripinfo id="flow2.5" depart="13.90" departLane="A0A1_0" departPos="4.10" departSpeed="0.00" departDelay="8.90" arrival="93.60" arrivalLane="C3D3_0" arrivalPos="79.20" arrivalSpeed="16.35" duration="79.70" routeLength="540.89" waitingTime="0.00" waitingCount="0" stopTime="0.00" timeLoss="43.57" rerouteNo="0" devices="tripinfo_flow2.5" vType="vtypeauto" speedFactor="1.18" vaporized=""/>
    <tripinfo id="flow2.6" depart="16.70" departLane="A0A1_0" departPos="4.10" departSpeed="0.00" departDelay="10.70" arrival="95.60" arrivalLane="C3D3_0" arrivalPos="79.20" arrivalSpeed="14.48" duration="78.90" routeLength="540.89" waitingTime="0.00" waitingCount="0" stopTime="0.00" timeLoss="38.15" rerouteNo="0" devices="tripinfo_flow2.6" vType="vtypeauto" speedFactor="1.04" vaporized=""/>
    <tripinfo id="flow2.8" depart="22.30" departLane="A0A1_0" departPos="4.10" departSpeed="0.00" departDelay="14.30" arrival="97.80" arrivalLane="C3D3_0" arrivalPos="79.20" arrivalSpeed="14.11" duration="75.50" routeLength="540.89" waitingTime="0.00" waitingCount="0" stopTime="0.00" timeLoss="33.85" rerouteNo="0" devices="tripinfo_flow2.8" vType="vtypeauto" speedFactor="1.02" vaporized=""/>
    <tripinfo id="flow2.10" depart="27.90" departLane="A0A1_0" departPos="4.10" departSpeed="0.00" departDelay="17.90" arrival="100.60" arrivalLane="C3D3_0" arrivalPos="79.20" arrivalSpeed="13.06" duration="72.70" routeLength="540.89" waitingTime="0.00" waitingCount="0" stopTime="0.00" timeLoss="27.39" rerouteNo="0" devices="tripinfo_flow2.10" vType="vtypeauto" speedFactor="0.94" vaporized=""/>
    <tripinfo id="flow2.11" depart="30.70" departLane="A0A1_0" departPos="4.10" departSpeed="0.00" departDelay="19.70" arrival="102.20" arrivalLane="C3D3_0" arrivalPos="79.20" arrivalSpeed="15.00" duration="71.50" routeLength="540.89" waitingTime="0.00" waitingCount="0" stopTime="0.00" timeLoss="32.26" rerouteNo="0" devices="tripinfo_flow2.11" vType="vtypeauto" speedFactor="1.09" vaporized=""/>
    <tripinfo id="flow0.0" depart="0.00" departLane="B4B3_0" departPos="4.10" departSpeed="0.00" departDelay="0.00" arrival="104.00" arrivalLane="B3A3_1" arrivalPos="79.20" arrivalSpeed="14.72" duration="104.00" routeLength="570.75" waitingTime="51.20" waitingCount="1" stopTime="0.00" timeLoss="63.17" rerouteNo="0" devices="tripinfo_flow0.0" vType="vtypeauto" speedFactor="1.06" vaporized=""/>
    <tripinfo id="flow2.13" depart="36.30" departLane="A0A1_0" departPos="4.10" departSpeed="0.00" departDelay="23.30" arrival="105.00" arrivalLane="C3D3_0" arrivalPos="79.20" arrivalSpeed="12.68" duration="68.70" routeLength="540.89" waitingTime="0.00" waitingCount="0" stopTime="0.00" timeLoss="22.55" rerouteNo="0" devices="tripinfo_flow2.13" vType="vtypeauto" speedFactor="0.92" vaporized=""/>
    <tripinfo id="flow2.12" depart="33.50" departLane="A0A1_0" departPos="4.10" departSpeed="0.00" departDelay="21.50" arrival="106.80" arrivalLane="C3D3_0" arrivalPos="79.20" arrivalSpeed="13.79" duration="73.30" routeLength="540.89" waitingTime="0.00" waitingCount="0" stopTime="0.00" timeLoss="30.76" rerouteNo="0" devices="tripinfo_flow2.12" vType="vtypeauto" speedFactor="1.00" vaporized=""/>
    <tripinfo id="flow2.14" depart="39.10" departLane="A0A1_0" departPos="4.10" departSpeed="0.00" departDelay="25.10" arrival="108.60" arrivalLane="C3D3_0" arrivalPos="79.20" arrivalSpeed="14.67" duration="69.50" routeLength="540.89" waitingTime="0.00" waitingCount="0" stopTime="0.00" timeLoss="29.56" rerouteNo="0" devices="tripinfo_flow2.14" vType="vtypeauto" speedFactor="1.06" vaporized=""/>
    <tripinfo id="flow2.15" depart="41.90" departLane="A0A1_0" departPos="4.10" departSpeed="0.00" departDelay="26.90" arrival="111.00" arrivalLane="C3D3_0" arrivalPos="79.20" arrivalSpeed="14.37" duration="69.10" routeLength="540.89" waitingTime="0.00" waitingCount="0" stopTime="0.00" timeLoss="27.98" rerouteNo="0" devices="tripinfo_flow2.15" vType="vtypeauto" speedFactor="1.03" vaporized=""/>
    <tripinfo id="flow2.16" depart="44.70" departLane="A0A1_0" departPos="4.10" departSpeed="0.00" departDelay="28.70" arrival="112.80" arrivalLane="C3D3_0" arrivalPos="79.20" arrivalSpeed="15.11" duration="68.10" routeLength="540.89" waitingTime="0.00" waitingCount="0" stopTime="0.00" timeLoss="29.28" rerouteNo="0" devices="tripinfo_flow2.16" vType="vtypeauto" speedFactor="1.10" vaporized=""/>
    <tripinfo id="flow0.8" depart="14.40" departLane="B4B3_0" departPos="4.10" departSpeed="0.00" departDelay="6.40" arrival="114.20" arrivalLane="B3A3_1" arrivalPos="79.20" arrivalSpeed="12.48" duration="99.80" routeLength="570.75" waitingTime="36.60" waitingCount="1" stopTime="0.00" timeLoss="51.72" rerouteNo="0" devices="tripinfo_flow0.8" vType="vtypeauto" speedFactor="0.90" vaporized=""/>
    <tripinfo id="flow0.1" depart="2.80" departLane="B4B3_0" departPos="4.10" departSpeed="0.00" departDelay="1.80" arrival="116.60" arrivalLane="B3A3_1" arrivalPos="79.20" arrivalSpeed="12.24" duration="113.80" routeLength="570.75" waitingTime="45.80" waitingCount="1" stopTime="0.00" timeLoss="64.99" rerouteNo="0" devices="tripinfo_flow0.1" vType="vtypeauto" speedFactor="0.89" vaporized=""/>
    <tripinfo id="flow0.9" depart="17.30" departLane="B4B3_0" departPos="4.10" departSpeed="0.00" departDelay="8.30" arrival="117.80" arrivalLane="B3A3_1" arrivalPos="79.20" arrivalSpeed="13.96" duration="100.50" routeLength="570.75" waitingTime="31.10" waitingCount="2" stopTime="0.00" timeLoss="57.55" rerouteNo="0" devices="tripinfo_flow0.9" vType="vtypeauto@flow0.9" speedFactor="1.01" vaporized=""/>
    <tripinfo id="flow0.11" depart="20.20" departLane="B4B3_0" departPos="4.10" departSpeed="0.00" departDelay="9.20" arrival="119.50" arrivalLane="B3A3_1" arrivalPos="79.20" arrivalSpeed="13.97" duration="99.30" routeLength="570.75" waitingTime="24.90" waitingCount="2" stopTime="0.00" timeLoss="56.31" rerouteNo="0" devices="tripinfo_flow0.11" vType="vtypeauto@flow0.11" speedFactor="1.01" vaporized=""/>
    <tripinfo id="flow1.19" depart="52.80" departLane="A3B3_0" departPos="4.10" departSpeed="0.00" departDelay="33.80" arrival="136.30" arrivalLane="D3E3_0" arrivalPos="79.20" arrivalSpeed="16.94" duration="83.50" routeLength="375.10" waitingTime="36.70" waitingCount="4" stopTime="0.00" timeLoss="61.40" rerouteNo="0" devices="tripinfo_flow1.19" vType="vtypeauto" speedFactor="1.23" vaporized=""/>
    <tripinfo id="flow1.18" depart="50.00" departLane="A3B3_0" departPos="4.10" departSpeed="0.00" departDelay="32.00" arrival="137.30" arrivalLane="D3E3_0" arrivalPos="79.20" arrivalSpeed="11.38" duration="87.30" routeLength="375.10" waitingTime="39.30" waitingCount="4" stopTime="0.00" timeLoss="54.37" rerouteNo="0" devices="tripinfo_flow1.18" vType="vtypeauto" speedFactor="0.82" vaporized=""/>
    <tripinfo id="flow1.21" depart="58.30" departLane="A3B3_0" departPos="4.10" departSpeed="0.00" departDelay="37.30" arrival="138.30" arrivalLane="D3E3_1" arrivalPos="79.20" arrivalSpeed="13.32" duration="80.00" routeLength="375.10" waitingTime="18.70" waitingCount="3" stopTime="0.00" timeLoss="52.01" rerouteNo="0" devices="tripinfo_flow1.21" vType="vtypeauto" speedFactor="0.97" vaporized=""/>
    <tripinfo id="flow1.20" depart="55.60" departLane="A3B3_0" departPos="4.10" departSpeed="0.00" departDelay="35.60" arrival="138.80" arrivalLane="D3E3_0" arrivalPos="79.20" arrivalSpeed="13.94" duration="83.20" routeLength="375.10" waitingTime="23.40" waitingCount="4" stopTime="0.00" timeLoss="56.97" rerouteNo="0" devices="tripinfo_flow1.20" vType="vtypeauto@flow1.20" speedFactor="1.01" vaporized=""/>
    <tripinfo id="flow1.23" depart="63.80" departLane="A3B3_0" departPos="4.10" departSpeed="0.00" departDelay="40.80" arrival="139.80" arrivalLane="D3E3_1" arrivalPos="79.20" arrivalSpeed="13.71" duration="76.00" routeLength="375.10" waitingTime="11.30" waitingCount="2" stopTime="0.00" timeLoss="48.78" rerouteNo="0" devices="tripinfo_flow1.23" vType="vtypeauto" speedFactor="0.99" vaporized=""/>
    <tripinfo id="flow1.22" depart="61.10" departLane="A3B3_0" departPos="4.10" departSpeed="0.00" departDelay="39.10" arrival="139.90" arrivalLane="D3E3_0" arrivalPos="79.20" arrivalSpeed="13.94" duration="78.80" routeLength="375.10" waitingTime="16.30" waitingCount="2" stopTime="0.00" timeLoss="52.42" rerouteNo="0" devices="tripinfo_flow1.22" vType="vtypeauto@flow1.22" speedFactor="1.01" vaporized=""/>
    <tripinfo id="flow1.24" depart="66.60" departLane="A3B3_0" departPos="4.10" departSpeed="0.00" departDelay="42.60" arrival="141.10" arrivalLane="D3E3_0" arrivalPos="79.20" arrivalSpeed="13.96" duration="74.50" routeLength="375.10" waitingTime="11.60" waitingCount="2" stopTime="0.00" timeLoss="47.42" rerouteNo="0" devices="tripinfo_flow1.24" vType="vtypeauto@flow1.24" speedFactor="1.01" vaporized=""/>
    <tripinfo id="flow1.25" depart="69.40" departLane="A3B3_0" departPos="4.10" departSpeed="0.00" departDelay="44.40" arrival="141.30" arrivalLane="D3E3_1" arrivalPos="79.20" arrivalSpeed="15.01" duration="71.90" routeLength="375.10" waitingTime="6.40" waitingCount="1" stopTime="0.00" timeLoss="47.04" rerouteNo="0" devices="tripinfo_flow1.25" vType="vtypeauto" speedFactor="1.09" vaporized=""/>
    <tripinfo id="flow1.26" depart="72.20" departLane="A3B3_0" departPos="4.10" departSpeed="0.00" departDelay="46.20" arrival="142.30" arrivalLane="D3E3_0" arrivalPos="79.20" arrivalSpeed="13.88" duration="70.10" routeLength="375.10" waitingTime="6.80" waitingCount="2" stopTime="0.00" timeLoss="43.48" rerouteNo="0" devices="tripinfo_flow1.26" vType="vtypeauto@flow1.26" speedFactor="1.01" vaporized=""/>
    <tripinfo id="flow1.27" depart="74.90" departLane="A3B3_0" departPos="4.10" departSpeed="0.00" departDelay="47.90" arrival="143.20" arrivalLane="D3E3_1" arrivalPos="79.20" arrivalSpeed="12.51" duration="68.30" routeLength="375.10" waitingTime="2.20" waitingCount="1" stopTime="0.00" timeLoss="38.29" rerouteNo="0" devices="tripinfo_flow1.27" vType="vtypeauto" speedFactor="0.90" vaporized=""/>
    <tripinfo id="flow1.28" depart="77.60" departLane="A3B3_0" departPos="4.10" departSpeed="0.00" departDelay="49.60" arrival="144.20" arrivalLane="D3E3_0" arrivalPos="79.20" arrivalSpeed="12.08" duration="66.60" routeLength="375.10" waitingTime="0.90" waitingCount="1" stopTime="0.00" timeLoss="35.59" rerouteNo="0" devices="tripinfo_flow1.28" vType="vtypeauto" speedFactor="0.87" vaporized=""/>
    <tripinfo id="flow1.29" depart="80.40" departLane="A3B3_0" departPos="4.10" departSpeed="0.00" departDelay="51.40" arrival="144.70" arrivalLane="D3E3_1" arrivalPos="79.20" arrivalSpeed="14.82" duration="64.30" routeLength="375.10" waitingTime="0.00" waitingCount="0" stopTime="0.00" timeLoss="38.94" rerouteNo="0" devices="tripinfo_flow1.29" vType="vtypeauto" speedFactor="1.07" vaporized=""/>
    <tripinfo id="flow1.30" depart="82.70" departLane="A3B3_0" departPos="4.10" departSpeed="0.00" departDelay="52.70" arrival="145.70" arrivalLane="D3E3_0" arrivalPos="79.20" arrivalSpeed="14.30" duration="63.00" routeLength="375.10" waitingTime="0.00" waitingCount="0" stopTime="0.00" timeLoss="36.88" rerouteNo="0" devices="tripinfo_flow1.30" vType="vtypeauto" speedFactor="1.04" vaporized=""/>
    <tripinfo id="flow1.31" depart="85.50" departLane="A3B3_0" departPos="4.10" departSpeed="0.00" departDelay="54.50" arrival="146.10" arrivalLane="D3E3_1" arrivalPos="79.20" arrivalSpeed="14.70" duration="60.60" routeLength="375.10" waitingTime="0.00" waitingCount="0" stopTime="0.00" timeLoss="35.27" rerouteNo="0" devices="tripinfo_flow1.31" vType="vtypeauto" speedFactor="1.07" vaporized=""/>
    <tripinfo id="flow1.32" depart="87.20" departLane="A3B3_0" departPos="4.10" departSpeed="0.00" departDelay="55.20" arrival="147.20" arrivalLane="D3E3_0" arrivalPos="79.20" arrivalSpeed="13.42" duration="60.00" routeLength="375.10" waitingTime="0.00" waitingCount="0" stopTime="0.00" timeLoss="32.10" rerouteNo="0" devices="tripinfo_flow1.32" vType="vtypeauto" speedFactor="0.97" vaporized=""/>
    <tripinfo id="flow1.33" depart="90.00" departLane="A3B3_0" departPos="4.10" departSpeed="0.00" departDelay="57.00" arrival="147.80" arrivalLane="D3E3_1" arrivalPos="79.20" arrivalSpeed="13.42" duration="57.80" routeLength="375.10" waitingTime="0.00" waitingCount="0" stopTime="0.00" timeLoss="29.90" rerouteNo="0" devices="tripinfo_flow1.33" vType="vtypeauto" speedFactor="0.97" vaporized=""/>
    <tripinfo id="flow1.34" depart="91.10" departLane="A3B3_0" departPos="4.10" departSpeed="0.00" departDelay="57.10" arrival="148.70" arrivalLane="D3E3_0" arrivalPos="79.20" arrivalSpeed="15.66" duration="57.60" routeLength="375.10" waitingTime="0.00" waitingCount="0" stopTime="0.00" timeLoss="33.56" rerouteNo="0" devices="tripinfo_flow1.34" vType="vtypeauto" speedFactor="1.13" vaporized=""/>
    <tripinfo id="flow1.35" depart="93.90" departLane="A3B3_0" departPos="4.10" departSpeed="0.00" departDelay="58.90" arrival="149.40" arrivalLane="D3E3_1" arrivalPos="79.20" arrivalSpeed="13.45" duration="55.50" routeLength="375.10" waitingTime="0.00" waitingCount="0" stopTime="0.00" timeLoss="27.65" rerouteNo="0" devices="tripinfo_flow1.35" vType="vtypeauto" speedFactor="0.97" vaporized=""/>
    <tripinfo id="flow1.36" depart="94.40" departLane="A3B3_0" departPos="4.10" departSpeed="0.00" departDelay="58.40" arrival="150.30" arrivalLane="D3E3_0" arrivalPos="79.20" arrivalSpeed="13.57" duration="55.90" routeLength="375.10" waitingTime="0.00" waitingCount="0" stopTime="0.00" timeLoss="28.26" rerouteNo="0" devices="tripinfo_flow1.36" vType="vtypeauto" speedFactor="0.98" vaporized=""/>
    <tripinfo id="flow1.38" depart="99.60" departLane="A3B3_0" departPos="4.10" departSpeed="0.00" departDelay="61.60" arrival="152.00" arrivalLane="D3E3_0" arrivalPos="79.20" arrivalSpeed="12.68" duration="52.40" routeLength="375.10" waitingTime="0.00" waitingCount="0" stopTime="0.00" timeLoss="22.88" rerouteNo="0" devices="tripinfo_flow1.38" vType="vtypeauto" speedFactor="0.92" vaporized=""/>
    <tripinfo id="flow5.0" depart="0.00" departLane="E2D2_0" departPos="4.10" departSpeed="0.00" departDelay="0.00" arrival="152.70" arrivalLane="B1A1_0" arrivalPos="79.20" arrivalSpeed="11.53" duration="152.70" routeLength="635.44" waitingTime="71.40" waitingCount="4" stopTime="0.00" timeLoss="92.45" rerouteNo="0" devices="tripinfo_flow5.0" vType="vtypeauto" speedFactor="0.83" vaporized=""/>
    <tripinfo id="flow1.37" depart="97.90" departLane="A3B3_0" departPos="4.10" departSpeed="0.00" departDelay="60.90" arrival="152.80" arrivalLane="D3E3_1" arrivalPos="79.20" arrivalSpeed="10.43" duration="54.90" routeLength="375.10" waitingTime="0.00" waitingCount="0" stopTime="0.00" timeLoss="18.92" rerouteNo="0" devices="tripinfo_flow1.37" vType="vtypeauto" speedFactor="0.75" vaporized=""/>
    <tripinfo id="flow1.40" depart="105.20" departLane="A3B3_0" departPos="4.10" departSpeed="0.00" departDelay="65.20" arrival="153.50" arrivalLane="D3E3_0" arrivalPos="79.20" arrivalSpeed="14.94" duration="48.30" routeLength="375.10" waitingTime="0.00" waitingCount="0" stopTime="0.00" timeLoss="23.28" rerouteNo="0" devices="tripinfo_flow1.40" vType="vtypeauto" speedFactor="1.08" vaporized=""/>