<?xml version="1.0" encoding="UTF-8"?>

<!-- generated on 2024-10-30 18:47:37 by Eclipse SUMO sumo Version 1.20.0
<configuration xmlns:xsi="http://www.w3.org/2001/XMLSchema-instance" xsi:noNamespaceSchemaLocation="http://sumo.dlr.de/xsd/sumoConfiguration.xsd">

    <input>
        <net-file value="./sim_cfg_grid_2_lanes/grid.net.xml"/>
        <route-files value="./sim_cfg_grid_2_lanes/3x0.08.rou.xml"/>
    </input>

    <output>
        <tripinfo-output value="./sim_cfg_grid_2_lanes/tripinfo_0.029.xml"/>
    </output>

    <time>
        <begin value="0"/>
        <end value="500"/>
        <step-length value="0.1"/>
    </time>

    <traci_server>
        <remote-port value="50018"/>
    </traci_server>

    <gui_only>
        <gui-settings-file value="./sim_cfg_grid_2_lanes/gui_settings.xml"/>
    </gui_only>

</configuration>
-->

<tripinfos xmlns:xsi="http://www.w3.org/2001/XMLSchema-instance" xsi:noNamespaceSchemaLocation="http://sumo.dlr.de/xsd/tripinfo_file.xsd">
    <tripinfo id="flow1.0" depart="0.00" departLane="A3B3_0" departPos="4.10" departSpeed="0.00" departDelay="0.00" arrival="51.10" arrivalLane="D3E3_0" arrivalPos="79.20" arrivalSpeed="12.99" duration="51.10" routeLength="375.10" waitingTime="10.70" waitingCount="2" stopTime="0.00" timeLoss="22.24" rerouteNo="0" devices="tripinfo_flow1.0" vType="vtypeauto" speedFactor="0.94" vaporized=""/>
    <tripinfo id="flow2.0" depart="0.00" departLane="A0A1_0" departPos="4.10" departSpeed="0.00" departDelay="0.00" arrival="59.70" arrivalLane="C3D3_0" arrivalPos="79.20" arrivalSpeed="13.15" duration="59.70" routeLength="540.89" waitingTime="5.70" waitingCount="1" stopTime="0.00" timeLoss="17.64" rerouteNo="0" devices="tripinfo_flow2.0" vType="vtypeauto" speedFactor="1.01" vaporized=""/>
    <tripinfo id="flow1.1" depart="12.00" departLane="A3B3_0" departPos="4.10" departSpeed="0.00" departDelay="0.00" arrival="66.50" arrivalLane="D3E3_0" arrivalPos="79.20" arrivalSpeed="14.28" duration="54.50" routeLength="375.10" waitingTime="11.00" waitingCount="3" stopTime="0.00" timeLoss="28.27" rerouteNo="0" devices="tripinfo_flow1.1" vType="vtypeauto" speedFactor="1.03" vaporized=""/>
    <tripinfo id="flow0.0" depart="0.00" departLane="B4B3_0" departPos="4.10" departSpeed="0.00" departDelay="0.00" arrival="67.40" arrivalLane="B3A3_1" arrivalPos="79.20" arrivalSpeed="14.66" duration="67.40" routeLength="570.75" waitingTime="10.70" waitingCount="2" stopTime="0.00" timeLoss="26.57" rerouteNo="0" devices="tripinfo_flow0.0" vType="vtypeauto" speedFactor="1.06" vaporized=""/>
    <tripinfo id="flow0.1" depart="12.00" departLane="B4B3_0" departPos="4.10" departSpeed="0.00" departDelay="0.00" arrival="69.30" arrivalLane="B3A3_1" arrivalPos="79.20" arrivalSpeed="15.00" duration="57.30" routeLength="570.75" waitingTime="0.00" waitingCount="0" stopTime="0.00" timeLoss="17.36" rerouteNo="0" devices="tripinfo_flow0.1" vType="vtypeauto" speedFactor="1.08" vaporized=""/>
    <tripinfo id="flow2.1" depart="12.00" departLane="A0A1_0" departPos="4.10" departSpeed="0.00" departDelay="0.00" arrival="81.40" arrivalLane="C3D3_0" arrivalPos="79.20" arrivalSpeed="11.50" duration="69.40" routeLength="540.89" waitingTime="7.80" waitingCount="1" stopTime="0.00" timeLoss="18.28" rerouteNo="0" devices="tripinfo_flow2.1" vType="vtypeauto" speedFactor="0.83" vaporized=""/>
    <tripinfo id="flow2.2" depart="24.00" departLane="A0A1_0" departPos="4.10" departSpeed="0.00" departDelay="0.00" arrival="83.20" arrivalLane="C3D3_0" arrivalPos="79.20" arrivalSpeed="12.94" duration="59.20" routeLength="540.89" waitingTime="0.00" waitingCount="0" stopTime="0.00" timeLoss="13.81" rerouteNo="0" devices="tripinfo_flow2.2" vType="vtypeauto" speedFactor="0.94" vaporized=""/>
    <tripinfo id="flow1.3" depart="36.00" departLane="A3B3_0" departPos="4.10" departSpeed="0.00" departDelay="0.00" arrival="83.50" arrivalLane="D3E3_1" arrivalPos="79.20" arrivalSpeed="15.09" duration="47.50" routeLength="375.10" waitingTime="8.60" waitingCount="2" stopTime="0.00" timeLoss="22.69" rerouteNo="0" devices="tripinfo_flow1.3" vType="vtypeauto" speedFactor="1.09" vaporized=""/>
    <tripinfo id="flow0.2" depart="24.00" departLane="B4B3_0" departPos="4.10" departSpeed="0.00" departDelay="0.00" arrival="83.60" arrivalLane="B3A3_1" arrivalPos="79.20" arrivalSpeed="14.41" duration="59.60" routeLength="570.75" waitingTime="2.70" waitingCount="2" stopTime="0.00" timeLoss="18.31" rerouteNo="0" devices="tripinfo_flow0.2" vType="vtypeauto" speedFactor="1.05" vaporized=""/>
    <tripinfo id="flow1.2" depart="24.00" departLane="A3B3_0" departPos="4.10" departSpeed="0.00" departDelay="0.00" arrival="84.30" arrivalLane="D3E3_0" arrivalPos="79.20" arrivalSpeed="12.28" duration="60.30" routeLength="375.10" waitingTime="15.00" waitingCount="3" stopTime="0.00" timeLoss="29.78" rerouteNo="0" devices="tripinfo_flow1.2" vType="vtypeauto" speedFactor="0.89" vaporized=""/>
    <tripinfo id="flow2.3" depart="36.00" departLane="A0A1_0" departPos="4.10" departSpeed="0.00" departDelay="0.00" arrival="94.70" arrivalLane="C3D3_0" arrivalPos="79.20" arrivalSpeed="14.23" duration="58.70" routeLength="540.89" waitingTime="2.10" waitingCount="2" stopTime="0.00" timeLoss="17.32" rerouteNo="0" devices="tripinfo_flow2.3" vType="vtypeauto" speedFactor="1.03" vaporized=""/>
    <tripinfo id="flow1.4" depart="48.00" departLane="A3B3_0" departPos="4.10" departSpeed="0.00" departDelay="0.00" arrival="98.20" arrivalLane="D3E3_0" arrivalPos="79.20" arrivalSpeed="15.59" duration="50.20" routeLength="375.10" waitingTime="8.80" waitingCount="2" stopTime="0.00" timeLoss="26.14" rerouteNo="0" devices="tripinfo_flow1.4" vType="vtypeauto" speedFactor="1.12" vaporized=""/>
    <tripinfo id="flow0.3" depart="36.00" departLane="B4B3_0" departPos="4.10" departSpeed="0.00" departDelay="0.00" arrival="107.20" arrivalLane="B3A3_1" arrivalPos="79.20" arrivalSpeed="11.82" duration="71.20" routeLength="570.75" waitingTime="7.90" waitingCount="2" stopTime="0.00" timeLoss="20.79" rerouteNo="0" devices="tripinfo_flow0.3" vType="vtypeauto" speedFactor="0.86" vaporized=""/>
    <tripinfo id="flow2.4" depart="48.00" departLane="A0A1_0" departPos="4.10" departSpeed="0.00" departDelay="0.00" arrival="111.70" arrivalLane="C3D3_0" arrivalPos="79.20" arrivalSpeed="11.71" duration="63.70" routeLength="540.89" waitingTime="5.40" waitingCount="2" stopTime="0.00" timeLoss="20.70" rerouteNo="0" devices="tripinfo_flow2.4" vType="vtypeauto" speedFactor="0.99" vaporized=""/>
    <tripinfo id="flow2.5" depart="60.00" departLane="A0A1_0" departPos="4.10" departSpeed="0.00" departDelay="0.00" arrival="116.80" arrivalLane="C3D3_0" arrivalPos="79.20" arrivalSpeed="12.99" duration="56.80" routeLength="540.89" waitingTime="0.00" waitingCount="0" stopTime="0.00" timeLoss="11.59" rerouteNo="0" devices="tripinfo_flow2.5" vType="vtypeauto" speedFactor="0.94" vaporized=""/>
    <tripinfo id="flow1.6" depart="72.00" departLane="A3B3_0" departPos="4.10" departSpeed="0.00" departDelay="0.00" arrival="118.40" arrivalLane="D3E3_1" arrivalPos="79.20" arrivalSpeed="16.08" duration="46.40" routeLength="375.10" waitingTime="8.50" waitingCount="2" stopTime="0.00" timeLoss="23.01" rerouteNo="0" devices="tripinfo_flow1.6" vType="vtypeauto" speedFactor="1.16" vaporized=""/>
    <tripinfo id="flow1.5" depart="60.00" departLane="A3B3_0" departPos="4.10" departSpeed="0.00" departDelay="0.00" arrival="119.30" arrivalLane="D3E3_0" arrivalPos="79.20" arrivalSpeed="12.14" duration="59.30" routeLength="375.10" waitingTime="14.00" waitingCount="3" stopTime="0.00" timeLoss="28.49" rerouteNo="0" devices="tripinfo_flow1.5" vType="vtypeauto" speedFactor="0.88" vaporized=""/>
    <tripinfo id="flow0.4" depart="48.00" departLane="B4B3_0" departPos="4.10" departSpeed="0.00" departDelay="0.00" arrival="120.20" arrivalLane="B3A3_1" arrivalPos="79.20" arrivalSpeed="14.47" duration="72.20" routeLength="570.75" waitingTime="12.60" waitingCount="2" stopTime="0.00" timeLoss="30.96" rerouteNo="0" devices="tripinfo_flow0.4" vType="vtypeauto" speedFactor="1.05" vaporized=""/>
    <tripinfo id="flow0.5" depart="60.00" departLane="B4B3_0" departPos="4.10" departSpeed="0.00" departDelay="0.00" arrival="123.00" arrivalLane="B3A3_1" arrivalPos="79.20" arrivalSpeed="12.84" duration="63.00" routeLength="570.75" waitingTime="0.00" waitingCount="0" stopTime="0.00" timeLoss="16.42" rerouteNo="0" devices="tripinfo_flow0.5" vType="vtypeauto" speedFactor="0.93" vaporized=""/>
    <tripinfo id="flow2.6" depart="72.00" departLane="A0A1_0" departPos="4.10" departSpeed="0.00" departDelay="0.00" arrival="129.70" arrivalLane="C3D3_0" arrivalPos="79.20" arrivalSpeed="14.07" duration="57.70" routeLength="540.89" waitingTime="1.30" waitingCount="2" stopTime="0.00" timeLoss="15.95" rerouteNo="0" devices="tripinfo_flow2.6" vType="vtypeauto" speedFactor="1.02" vaporized=""/>
    <tripinfo id="flow1.7" depart="84.00" departLane="A3B3_0" departPos="4.10" departSpeed="0.00" departDelay="0.00" arrival="132.70" arrivalLane="D3E3_0" arrivalPos="79.20" arrivalSpeed="13.45" duration="48.70" routeLength="375.10" waitingTime="7.50" waitingCount="2" stopTime="0.00" timeLoss="20.97" rerouteNo="0" devices="tripinfo_flow1.7" vType="vtypeauto" speedFactor="0.97" vaporized=""/>
    <tripinfo id="flow0.6" depart="72.00" departLane="B4B3_0" departPos="4.10" departSpeed="0.00" departDelay="0.00" arrival="140.10" arrivalLane="B3A3_1" arrivalPos="79.20" arrivalSpeed="12.98" duration="68.10" routeLength="570.75" waitingTime="6.40" waitingCount="2" stopTime="0.00" timeLoss="21.90" rerouteNo="0" devices="tripinfo_flow0.6" vType="vtypeauto" speedFactor="0.94" vaporized=""/>
    <tripinfo id="flow2.7" depart="84.00" departLane="A0A1_0" departPos="4.10" departSpeed="0.00" departDelay="0.00" arrival="146.70" arrivalLane="C3D3_0" arrivalPos="79.20" arrivalSpeed="12.29" duration="62.70" routeLength="540.89" waitingTime="3.50" waitingCount="1" stopTime="0.00" timeLoss="14.82" rerouteNo="0" devices="tripinfo_flow2.7" vType="vtypeauto" speedFactor="0.89" vaporized=""/>
    <tripinfo id="flow1.9" depart="108.00" departLane="A3B3_0" departPos="4.10" departSpeed="0.00" departDelay="0.00" arrival="153.30" arrivalLane="D3E3_1" arrivalPos="79.20" arrivalSpeed="15.70" duration="45.30" routeLength="375.10" waitingTime="7.10" waitingCount="2" stopTime="0.00" timeLoss="21.43" rerouteNo="0" devices="tripinfo_flow1.9" vType="vtypeauto" speedFactor="1.13" vaporized=""/>
    <tripinfo id="flow0.7" depart="84.00" departLane="B4B3_0" departPos="4.10" departSpeed="0.00" departDelay="0.00" arrival="154.10" arrivalLane="B3A3_1" arrivalPos="79.20" arrivalSpeed="13.96" duration="70.10" routeLength="570.75" waitingTime="10.60" waitingCount="2" stopTime="0.00" timeLoss="27.27" rerouteNo="0" devices="tripinfo_flow0.7" vType="vtypeauto" speedFactor="1.01" vaporized=""/>
    <tripinfo id="flow1.8" depart="96.00" departLane="A3B3_0" departPos="4.10" departSpeed="0.00" departDelay="0.00" arrival="154.30" arrivalLane="D3E3_0" arrivalPos="79.20" arrivalSpeed="12.11" duration="58.30" routeLength="375.10" waitingTime="12.80" waitingCount="3" stopTime="0.00" timeLoss="27.33" rerouteNo="0" devices="tripinfo_flow1.8" vType="vtypeauto" speedFactor="0.87" vaporized=""/>
    <tripinfo id="flow0.8" depart="96.00" departLane="B4B3_0" departPos="4.10" departSpeed="0.00" departDelay="0.00" arrival="160.00" arrivalLane="B3A3_1" arrivalPos="79.20" arrivalSpeed="11.38" duration="64.00" routeLength="570.75" waitingTime="0.00" waitingCount="0" stopTime="0.00" timeLoss="11.64" rerouteNo="0" devices="tripinfo_flow0.8" vType="vtypeauto" speedFactor="0.83" vaporized=""/>
    <tripinfo id="flow2.8" depart="96.00" departLane="A0A1_0" departPos="4.10" departSpeed="0.00" departDelay="0.00" arrival="165.50" arrivalLane="C3D3_0" arrivalPos="79.20" arrivalSpeed="12.73" duration="69.50" routeLength="540.89" waitingTime="8.00" waitingCount="1" stopTime="0.00" timeLoss="23.18" rerouteNo="0" devices="tripinfo_flow2.8" vType="vtypeauto" speedFactor="0.92" vaporized=""/>
    <tripinfo id="flow1.10" depart="120.00" departLane="A3B3_0" departPos="4.10" departSpeed="0.00" departDelay="0.00" arrival="169.30" arrivalLane="D3E3_0" arrivalPos="79.20" arrivalSpeed="15.98" duration="49.30" routeLength="375.10" waitingTime="6.70" waitingCount="3" stopTime="0.00" timeLoss="25.83" rerouteNo="0" devices="tripinfo_flow1.10" vType="vtypeauto" speedFactor="1.15" vaporized=""/>
    <tripinfo id="flow0.9" depart="108.00" departLane="B4B3_0" departPos="4.10" departSpeed="0.00" departDelay="0.00" arrival="177.10" arrivalLane="B3A3_1" arrivalPos="79.20" arrivalSpeed="13.17" duration="69.10" routeLength="570.75" waitingTime="7.50" waitingCount="3" stopTime="0.00" timeLoss="23.54" rerouteNo="0" devices="tripinfo_flow0.9" vType="vtypeauto" speedFactor="0.95" vaporized=""/>
    <tripinfo id="flow2.9" depart="108.00" departLane="A0A1_0" departPos="4.10" departSpeed="0.00" departDelay="0.00" arrival="182.50" arrivalLane="C3D3_0" arrivalPos="79.20" arrivalSpeed="6.75" duration="74.50" routeLength="540.89" waitingTime="10.20" waitingCount="1" stopTime="0.00" timeLoss="28.83" rerouteNo="0" devices="tripinfo_flow2.9" vType="vtypeauto" speedFactor="0.93" vaporized=""/>
    <tripinfo id="flow2.10" depart="120.00" departLane="A0A1_0" departPos="4.10" departSpeed="0.00" departDelay="0.00" arrival="184.30" arrivalLane="C3D3_0" arrivalPos="79.20" arrivalSpeed="9.55" duration="64.30" routeLength="540.89" waitingTime="0.70" waitingCount="1" stopTime="0.00" timeLoss="21.98" rerouteNo="0" devices="tripinfo_flow2.10" vType="vtypeauto" speedFactor="1.01" vaporized=""/>
    <tripinfo id="flow1.12" depart="144.00" departLane="A3B3_0" departPos="4.10" departSpeed="0.00" departDelay="0.00" arrival="189.50" arrivalLane="D3E3_1" arrivalPos="79.20" arrivalSpeed="16.26" duration="45.50" routeLength="375.10" waitingTime="7.40" waitingCount="2" stopTime="0.00" timeLoss="22.52" rerouteNo="0" devices="tripinfo_flow1.12" vType="vtypeauto" speedFactor="1.18" vaporized=""/>
    <tripinfo id="flow1.11" depart="132.00" departLane="A3B3_0" departPos="4.10" departSpeed="0.00" departDelay="0.00" arrival="189.70" arrivalLane="D3E3_0" arrivalPos="79.20" arrivalSpeed="13.79" duration="57.70" routeLength="375.10" waitingTime="14.00" waitingCount="3" stopTime="0.00" timeLoss="30.49" rerouteNo="0" devices="tripinfo_flow1.11" vType="vtypeauto" speedFactor="0.99" vaporized=""/>
    <tripinfo id="flow0.10" depart="120.00" departLane="B4B3_0" departPos="4.10" departSpeed="0.00" departDelay="0.00" arrival="192.50" arrivalLane="B3A3_1" arrivalPos="79.20" arrivalSpeed="16.29" duration="72.50" routeLength="570.75" waitingTime="9.00" waitingCount="2" stopTime="0.00" timeLoss="35.76" rerouteNo="0" devices="tripinfo_flow0.10" vType="vtypeauto" speedFactor="1.18" vaporized=""/>
    <tripinfo id="flow0.11" depart="132.00" departLane="B4B3_0" departPos="4.10" departSpeed="0.00" departDelay="0.00" arrival="193.80" arrivalLane="B3A3_1" arrivalPos="79.20" arrivalSpeed="16.21" duration="61.80" routeLength="570.75" waitingTime="0.00" waitingCount="0" stopTime="0.00" timeLoss="24.95" rerouteNo="0" devices="tripinfo_flow0.11" vType="vtypeauto" speedFactor="1.17" vaporized=""/>
    <tripinfo id="flow2.11" depart="132.00" departLane="A0A1_0" departPos="4.10" departSpeed="0.00" departDelay="0.00" arrival="199.60" arrivalLane="C3D3_0" arrivalPos="79.20" arrivalSpeed="8.13" duration="67.60" routeLength="540.89" waitingTime="9.00" waitingCount="2" stopTime="0.00" timeLoss="25.92" rerouteNo="0" devices="tripinfo_flow2.11" vType="vtypeauto" speedFactor="1.02" vaporized=""/>
    <tripinfo id="flow2.12" depart="144.00" departLane="A0A1_0" departPos="4.10" departSpeed="0.00" departDelay="0.00" arrival="201.30" arrivalLane="C3D3_0" arrivalPos="79.20" arrivalSpeed="11.86" duration="57.30" routeLength="540.89" waitingTime="0.00" waitingCount="0" stopTime="0.00" timeLoss="18.69" rerouteNo="0" devices="tripinfo_flow2.12" vType="vtypeauto" speedFactor="1.10" vaporized=""/>
    <tripinfo id="flow1.13" depart="156.00" departLane="A3B3_0" departPos="4.10" departSpeed="0.00" departDelay="0.00" arrival="206.70" arrivalLane="D3E3_0" arrivalPos="79.20" arrivalSpeed="14.27" duration="50.70" routeLength="375.10" waitingTime="7.50" waitingCount="3" stopTime="0.00" timeLoss="24.41" rerouteNo="0" devices="tripinfo_flow1.13" vType="vtypeauto" speedFactor="1.03" vaporized=""/>
    <tripinfo id="flow2.13" depart="156.00" departLane="A0A1_0" departPos="4.10" departSpeed="0.00" departDelay="0.00" arrival="217.50" arrivalLane="C3D3_0" arrivalPos="79.20" arrivalSpeed="8.65" duration="61.50" routeLength="540.89" waitingTime="0.00" waitingCount="0" stopTime="0.00" timeLoss="17.11" rerouteNo="0" devices="tripinfo_flow2.13" vType="vtypeauto" speedFactor="0.96" vaporized=""/>
    <tripinfo id="flow0.12" depart="144.00" departLane="B4B3_0" departPos="4.10" departSpeed="0.00" departDelay="0.00" arrival="222.50" arrivalLane="B3A3_1" arrivalPos="79.20" arrivalSpeed="13.45" duration="78.50" routeLength="570.75" waitingTime="14.30" waitingCount="2" stopTime="0.00" timeLoss="34.08" rerouteNo="0" devices="tripinfo_flow0.12" vType="vtypeauto" speedFactor="0.97" vaporized=""/>
    <tripinfo id="flow1.14" depart="168.00" departLane="A3B3_0" departPos="4.10" departSpeed="0.00" departDelay="0.00" arrival="224.70" arrivalLane="D3E3_0" arrivalPos="79.20" arrivalSpeed="14.38" duration="56.70" routeLength="375.10" waitingTime="13.10" waitingCount="3" stopTime="0.00" timeLoss="30.62" rerouteNo="0" devices="tripinfo_flow1.14" vType="vtypeauto" speedFactor="1.04" vaporized=""/>
    <tripinfo id="flow0.13" depart="156.00" departLane="B4B3_0" departPos="4.10" departSpeed="0.00" departDelay="0.00" arrival="226.80" arrivalLane="B3A3_1" arrivalPos="79.20" arrivalSpeed="12.48" duration="70.80" routeLength="570.75" waitingTime="8.00" waitingCount="1" stopTime="0.00" timeLoss="22.81" rerouteNo="0" devices="tripinfo_flow0.13" vType="vtypeauto" speedFactor="0.90" vaporized=""/>
    <tripinfo id="flow0.14" depart="168.00" departLane="B4B3_0" departPos="4.10" departSpeed="0.00" departDelay="0.00" arrival="228.30" arrivalLane="B3A3_1" arrivalPos="79.20" arrivalSpeed="15.14" duration="60.30" routeLength="570.75" waitingTime="0.00" waitingCount="0" stopTime="0.00" timeLoss="20.71" rerouteNo="0" devices="tripinfo_flow0.14" vType="vtypeauto" speedFactor="1.09" vaporized=""/>
    <tripinfo id="flow2.14" depart="168.00" departLane="A0A1_0" departPos="4.10" departSpeed="0.00" departDelay="0.00" arrival="233.60" arrivalLane="C3D3_0" arrivalPos="79.20" arrivalSpeed="10.97" duration="65.60" routeLength="540.89" waitingTime="8.40" waitingCount="2" stopTime="0.00" timeLoss="24.86" rerouteNo="0" devices="tripinfo_flow2.14" vType="vtypeauto" speedFactor="1.04" vaporized=""/>
    <tripinfo id="flow0.15" depart="180.00" departLane="B4B3_0" departPos="4.10" departSpeed="0.00" departDelay="0.00" arrival="240.40" arrivalLane="B3A3_1" arrivalPos="79.20" arrivalSpeed="15.10" duration="60.40" routeLength="570.75" waitingTime="0.30" waitingCount="1" stopTime="0.00" timeLoss="20.67" rerouteNo="0" devices="tripinfo_flow0.15" vType="vtypeauto" speedFactor="1.09" vaporized=""/>
    <tripinfo id="flow1.15" depart="180.00" departLane="A3B3_0" departPos="4.10" departSpeed="0.00" departDelay="0.00" arrival="240.90" arrivalLane="D3E3_0" arrivalPos="79.20" arrivalSpeed="13.85" duration="60.90" routeLength="375.10" waitingTime="17.20" waitingCount="3" stopTime="0.00" timeLoss="33.75" rerouteNo="0" devices="tripinfo_flow1.15" vType="vtypeauto" speedFactor="1.00" vaporized=""/>
    <tripinfo id="flow1.16" depart="192.00" departLane="A3B3_0" departPos="4.10" departSpeed="0.00" departDelay="0.00" arrival="241.40" arrivalLane="D3E3_0" arrivalPos="79.20" arrivalSpeed="11.77" duration="49.40" routeLength="375.10" waitingTime="6.80" waitingCount="2" stopTime="0.00" timeLoss="17.64" rerouteNo="0" devices="tripinfo_flow1.16" vType="vtypeauto" speedFactor="0.85" vaporized=""/>
    <tripinfo id="flow2.15" depart="180.00" departLane="A0A1_0" departPos="4.10" departSpeed="0.00" departDelay="0.00" arrival="250.00" arrivalLane="C3D3_0" arrivalPos="79.20" arrivalSpeed="12.49" duration="70.00" routeLength="540.89" waitingTime="9.90" waitingCount="2" stopTime="0.00" timeLoss="22.83" rerouteNo="0" devices="tripinfo_flow2.15" vType="vtypeauto" speedFactor="0.90" vaporized=""/>
    <tripinfo id="flow1.17" depart="204.00" departLane="A3B3_0" departPos="4.10" departSpeed="0.00" departDelay="0.00" arrival="256.70" arrivalLane="D3E3_0" arrivalPos="79.20" arrivalSpeed="14.00" duration="52.70" routeLength="375.10" waitingTime="9.30" waitingCount="3" stopTime="0.00" timeLoss="26.12" rerouteNo="0" devices="tripinfo_flow1.17" vType="vtypeauto" speedFactor="1.02" vaporized=""/>
    <tripinfo id="flow0.16" depart="192.00" departLane="B4B3_0" departPos="4.10" departSpeed="0.00" departDelay="0.00" arrival="260.50" arrivalLane="B3A3_1" arrivalPos="79.20" arrivalSpeed="12.16" duration="68.50" routeLength="570.75" waitingTime="4.00" waitingCount="1" stopTime="0.00" timeLoss="19.28" rerouteNo="0" devices="tripinfo_flow0.16" vType="vtypeauto" speedFactor="0.88" vaporized=""/>
    <tripinfo id="flow2.16" depart="192.00" departLane="A0A1_0" departPos="4.10" departSpeed="0.00" departDelay="0.00" arrival="266.80" arrivalLane="C3D3_0" arrivalPos="79.20" arrivalSpeed="11.85" duration="74.80" routeLength="540.89" waitingTime="10.20" waitingCount="1" stopTime="0.00" timeLoss="25.09" rerouteNo="0" devices="tripinfo_flow2.16" vType="vtypeauto" speedFactor="0.85" vaporized=""/>
    <tripinfo id="flow2.17" depart="204.00" departLane="A0A1_0" departPos="4.10" departSpeed="0.00" departDelay="0.00" arrival="268.30" arrivalLane="C3D3_0" arrivalPos="79.20" arrivalSpeed="14.18" duration="64.30" routeLength="540.89" waitingTime="2.10" waitingCount="1" stopTime="0.00" timeLoss="25.53" rerouteNo="0" devices="tripinfo_flow2.17" vType="vtypeauto" speedFactor="1.10" vaporized=""/>
    <tripinfo id="flow1.19" depart="228.00" departLane="A3B3_0" departPos="4.10" departSpeed="0.00" departDelay="0.00" arrival="273.60" arrivalLane="D3E3_1" arrivalPos="79.20" arrivalSpeed="14.19" duration="45.60" routeLength="375.10" waitingTime="6.20" waitingCount="2" stopTime="0.00" timeLoss="19.16" rerouteNo="0" devices="tripinfo_flow1.19" vType="vtypeauto" speedFactor="1.02" vaporized=""/>
    <tripinfo id="flow1.18" depart="216.00" departLane="A3B3_0" departPos="4.10" departSpeed="0.00" departDelay="0.00" arrival="273.70" arrivalLane="D3E3_0" arrivalPos="79.20" arrivalSpeed="13.72" duration="57.70" routeLength="375.10" waitingTime="14.30" waitingCount="3" stopTime="0.00" timeLoss="30.55" rerouteNo="0" devices="tripinfo_flow1.18" vType="vtypeauto" speedFactor="1.00" vaporized=""/>
    <tripinfo id="flow0.17" depart="204.00" departLane="B4B3_0" departPos="4.10" departSpeed="0.00" departDelay="0.00" arrival="274.60" arrivalLane="B3A3_1" arrivalPos="79.20" arrivalSpeed="16.22" duration="70.60" routeLength="570.75" waitingTime="11.20" waitingCount="1" stopTime="0.00" timeLoss="33.63" rerouteNo="0" devices="tripinfo_flow0.17" vType="vtypeauto" speedFactor="1.17" vaporized=""/>
    <tripinfo id="flow0.18" depart="216.00" departLane="B4B3_0" departPos="4.10" departSpeed="0.00" departDelay="0.00" arrival="278.50" arrivalLane="B3A3_1" arrivalPos="79.20" arrivalSpeed="13.82" duration="62.50" routeLength="570.75" waitingTime="0.00" waitingCount="0" stopTime="0.00" timeLoss="19.40" rerouteNo="0" devices="tripinfo_flow0.18" vType="vtypeauto" speedFactor="1.00" vaporized=""/>
    <tripinfo id="flow2.18" depart="216.00" departLane="A0A1_0" departPos="4.10" departSpeed="0.00" departDelay="0.00" arrival="285.30" arrivalLane="C3D3_0" arrivalPos="79.20" arrivalSpeed="12.48" duration="69.30" routeLength="540.89" waitingTime="8.80" waitingCount="2" stopTime="0.00" timeLoss="22.04" rerouteNo="0" devices="tripinfo_flow2.18" vType="vtypeauto" speedFactor="0.90" vaporized=""/>
    <tripinfo id="flow1.20" depart="240.00" departLane="A3B3_0" departPos="4.10" departSpeed="0.00" departDelay="0.00" arrival="291.60" arrivalLane="D3E3_0" arrivalPos="79.20" arrivalSpeed="15.54" duration="51.60" routeLength="375.10" waitingTime="8.70" waitingCount="3" stopTime="0.00" timeLoss="27.39" rerouteNo="0" devices="tripinfo_flow1.20" vType="vtypeauto" speedFactor="1.12" vaporized=""/>
    <tripinfo id="flow0.19" depart="228.00" departLane="B4B3_0" departPos="4.10" departSpeed="0.00" departDelay="0.00" arrival="296.50" arrivalLane="B3A3_1" arrivalPos="79.20" arrivalSpeed="15.80" duration="68.50" routeLength="570.75" waitingTime="4.90" waitingCount="2" stopTime="0.00" timeLoss="30.65" rerouteNo="0" devices="tripinfo_flow0.19" vType="vtypeauto" speedFactor="1.14" vaporized=""/>
    <tripinfo id="flow2.19" depart="228.00" departLane="A0A1_0" departPos="4.10" departSpeed="0.00" departDelay="0.00" arrival="301.60" arrivalLane="C3D3_0" arrivalPos="79.20" arrivalSpeed="11.30" duration="73.60" routeLength="540.89" waitingTime="10.20" waitingCount="1" stopTime="0.00" timeLoss="29.74" rerouteNo="0" devices="tripinfo_flow2.19" vType="vtypeauto" speedFactor="0.97" vaporized=""/>
    <tripinfo id="flow2.20" depart="240.00" departLane="A0A1_0" departPos="4.10" departSpeed="0.00" departDelay="0.00" arrival="303.40" arrivalLane="C3D3_0" arrivalPos="79.20" arrivalSpeed="14.04" duration="63.40" routeLength="540.89" waitingTime="0.50" waitingCount="1" stopTime="0.00" timeLoss="21.66" rerouteNo="0" devices="tripinfo_flow2.20" vType="vtypeauto" speedFactor="1.02" vaporized=""/>
    <tripinfo id="flow1.21" depart="252.00" departLane="A3B3_0" departPos="4.10" departSpeed="0.00" departDelay="0.00" arrival="309.00" arrivalLane="D3E3_0" arrivalPos="79.20" arrivalSpeed="12.91" duration="57.00" routeLength="375.10" waitingTime="12.40" waitingCount="3" stopTime="0.00" timeLoss="28.20" rerouteNo="0" devices="tripinfo_flow1.21" vType="vtypeauto" speedFactor="0.94" vaporized=""/>
    <tripinfo id="flow1.22" depart="264.00" departLane="A3B3_0" departPos="4.10" departSpeed="0.00" departDelay="0.00" arrival="309.20" arrivalLane="D3E3_0" arrivalPos="79.20" arrivalSpeed="12.66" duration="45.20" routeLength="375.10" waitingTime="3.90" waitingCount="2" stopTime="0.00" timeLoss="15.61" rerouteNo="0" devices="tripinfo_flow1.22" vType="vtypeauto" speedFactor="0.91" vaporized=""/>
    <tripinfo id="flow0.20" depart="240.00" departLane="B4B3_0" departPos="4.10" departSpeed="0.00" departDelay="0.00" arrival="312.60" arrivalLane="B3A3_1" arrivalPos="79.20" arrivalSpeed="14.96" duration="72.60" routeLength="570.75" waitingTime="9.40" waitingCount="3" stopTime="0.00" timeLoss="32.64" rerouteNo="0" devices="tripinfo_flow0.20" vType="vtypeauto" speedFactor="1.08" vaporized=""/>
    <tripinfo id="flow0.21" depart="252.00" departLane="B4B3_0" departPos="4.10" departSpeed="0.00" departDelay="0.00" arrival="314.30" arrivalLane="B3A3_1" arrivalPos="79.20" arrivalSpeed="13.62" duration="62.30" routeLength="570.75" waitingTime="0.00" waitingCount="0" stopTime="0.00" timeLoss="18.50" rerouteNo="0" devices="tripinfo_flow0.21" vType="vtypeauto" speedFactor="0.99" vaporized=""/>
    <tripinfo id="flow2.21" depart="252.00" departLane="A0A1_0" departPos="4.10" departSpeed="0.00" departDelay="0.00" arrival="320.70" arrivalLane="C3D3_0" arrivalPos="79.20" arrivalSpeed="11.85" duration="68.70" routeLength="540.89" waitingTime="7.40" waitingCount="2" stopTime="0.00" timeLoss="20.55" rerouteNo="0" devices="tripinfo_flow2.21" vType="vtypeauto" speedFactor="0.88" vaporized=""/>
    <tripinfo id="flow2.22" depart="264.00" departLane="A0A1_0" departPos="4.10" departSpeed="0.00" departDelay="0.00" arrival="322.20" arrivalLane="C3D3_0" arrivalPos="79.20" arrivalSpeed="14.38" duration="58.20" routeLength="540.89" waitingTime="3.50" waitingCount="1" stopTime="0.00" timeLoss="17.36" rerouteNo="0" devices="tripinfo_flow2.22" vType="vtypeauto" speedFactor="1.04" vaporized=""/>
    <tripinfo id="flow1.23" depart="276.00" departLane="A3B3_0" departPos="4.10" departSpeed="0.00" departDelay="0.00" arrival="327.60" arrivalLane="D3E3_0" arrivalPos="79.20" arrivalSpeed="14.13" duration="51.60" routeLength="375.10" waitingTime="8.00" waitingCount="3" stopTime="0.00" timeLoss="25.15" rerouteNo="0" devices="tripinfo_flow1.23" vType="vtypeauto" speedFactor="1.02" vaporized=""/>
    <tripinfo id="flow2.23" depart="276.00" departLane="A0A1_0" departPos="4.10" departSpeed="0.00" departDelay="0.00" arrival="339.10" arrivalLane="C3D3_0" arrivalPos="79.20" arrivalSpeed="13.50" duration="63.10" routeLength="540.89" waitingTime="1.70" waitingCount="2" stopTime="0.00" timeLoss="19.36" rerouteNo="0" devices="tripinfo_flow2.23" vType="vtypeauto" speedFactor="0.97" vaporized=""/>
    <tripinfo id="flow0.22" depart="264.00" departLane="B4B3_0" departPos="4.10" departSpeed="0.00" departDelay="0.00" arrival="344.00" arrivalLane="B3A3_1" arrivalPos="79.20" arrivalSpeed="12.52" duration="80.00" routeLength="570.75" waitingTime="13.90" waitingCount="2" stopTime="0.00" timeLoss="32.33" rerouteNo="0" devices="tripinfo_flow0.22" vType="vtypeauto" speedFactor="0.91" vaporized=""/>
    <tripinfo id="flow0.23" depart="276.00" departLane="B4B3_0" departPos="4.10" departSpeed="0.00" departDelay="0.00" arrival="345.50" arrivalLane="B3A3_1" arrivalPos="79.20" arrivalSpeed="14.16" duration="69.50" routeLength="570.75" waitingTime="8.20" waitingCount="1" stopTime="0.00" timeLoss="27.20" rerouteNo="0" devices="tripinfo_flow0.23" vType="vtypeauto" speedFactor="1.02" vaporized=""/>
    <tripinfo id="flow1.24" depart="288.00" departLane="A3B3_0" departPos="4.10" departSpeed="0.00" departDelay="0.00" arrival="345.50" arrivalLane="D3E3_0" arrivalPos="79.20" arrivalSpeed="14.66" duration="57.50" routeLength="375.10" waitingTime="14.70" waitingCount="3" stopTime="0.00" timeLoss="31.93" rerouteNo="0" devices="tripinfo_flow1.24" vType="vtypeauto" speedFactor="1.06" vaporized=""/>