<?xml version="1.0" encoding="UTF-8"?>

<!-- generated on 2024-10-30 19:03:23 by Eclipse SUMO sumo Version 1.20.0
<configuration xmlns:xsi="http://www.w3.org/2001/XMLSchema-instance" xsi:noNamespaceSchemaLocation="http://sumo.dlr.de/xsd/sumoConfiguration.xsd">

    <input>
        <net-file value="./sim_cfg_grid_2_lanes/grid.net.xml"/>
        <route-files value="./sim_cfg_grid_2_lanes/10x0.16.rou.xml"/>
    </input>

    <output>
        <tripinfo-output value="./sim_cfg_grid_2_lanes/tripinfo-platooning_0.19.xml"/>
    </output>

    <time>
        <begin value="0"/>
        <end value="500"/>
        <step-length value="0.1"/>
    </time>

    <traci_server>
        <remote-port value="50079"/>
    </traci_server>

    <gui_only>
        <gui-settings-file value="./sim_cfg_grid_2_lanes/gui_settings.xml"/>
    </gui_only>

</configuration>
-->

<tripinfos xmlns:xsi="http://www.w3.org/2001/XMLSchema-instance" xsi:noNamespaceSchemaLocation="http://sumo.dlr.de/xsd/tripinfo_file.xsd">
    <tripinfo id="flow4.0" depart="1.30" departLane="C0C1_0" departPos="4.10" departSpeed="0.00" departDelay="1.30" arrival="58.60" arrivalLane="C3C4_0" arrivalPos="79.20" arrivalSpeed="14.26" duration="57.30" routeLength="375.10" waitingTime="13.80" waitingCount="3" stopTime="0.00" timeLoss="31.07" rerouteNo="0" devices="tripinfo_flow4.0" vType="vtypeauto" speedFactor="1.03" vaporized=""/>
    <tripinfo id="flow4.1" depart="7.20" departLane="C0C1_0" departPos="4.10" departSpeed="0.00" departDelay="1.20" arrival="58.80" arrivalLane="C3C4_0" arrivalPos="79.20" arrivalSpeed="13.71" duration="51.60" routeLength="375.10" waitingTime="7.30" waitingCount="2" stopTime="0.00" timeLoss="24.28" rerouteNo="0" devices="tripinfo_flow4.1" vType="vtypeauto" speedFactor="0.99" vaporized=""/>
    <tripinfo id="flow4.2" depart="13.00" departLane="C0C1_0" departPos="4.10" departSpeed="0.00" departDelay="1.00" arrival="61.10" arrivalLane="C3C4_0" arrivalPos="79.20" arrivalSpeed="11.39" duration="48.10" routeLength="375.10" waitingTime="0.00" waitingCount="0" stopTime="0.00" timeLoss="15.40" rerouteNo="0" devices="tripinfo_flow4.2" vType="vtypeauto" speedFactor="0.83" vaporized=""/>
    <tripinfo id="flow9.2" depart="12.00" departLane="A2B2_0" departPos="4.10" departSpeed="0.00" departDelay="0.00" arrival="62.60" arrivalLane="D2E2_1" arrivalPos="79.20" arrivalSpeed="12.83" duration="50.60" routeLength="375.10" waitingTime="9.00" waitingCount="2" stopTime="0.00" timeLoss="21.60" rerouteNo="0" devices="tripinfo_flow9.2" vType="vtypeauto" speedFactor="0.93" vaporized=""/>
    <tripinfo id="flow9.3" depart="18.00" departLane="A2B2_0" departPos="4.10" departSpeed="0.00" departDelay="0.00" arrival="64.60" arrivalLane="D2E2_1" arrivalPos="79.20" arrivalSpeed="12.43" duration="46.60" routeLength="375.10" waitingTime="3.00" waitingCount="1" stopTime="0.00" timeLoss="16.54" rerouteNo="0" devices="tripinfo_flow9.3" vType="vtypeauto" speedFactor="0.90" vaporized=""/>
    <tripinfo id="flow9.0" depart="0.00" departLane="A2B2_0" departPos="4.10" departSpeed="0.00" departDelay="0.00" arrival="65.50" arrivalLane="D2E2_0" arrivalPos="79.20" arrivalSpeed="11.83" duration="65.50" routeLength="375.10" waitingTime="23.30" waitingCount="2" stopTime="0.00" timeLoss="33.92" rerouteNo="0" devices="tripinfo_flow9.0" vType="vtypeauto" speedFactor="0.86" vaporized=""/>
    <tripinfo id="flow9.1" depart="6.00" departLane="A2B2_0" departPos="4.10" departSpeed="0.00" departDelay="0.00" arrival="66.10" arrivalLane="D2E2_1" arrivalPos="79.20" arrivalSpeed="15.76" duration="60.10" routeLength="375.10" waitingTime="16.00" waitingCount="2" stopTime="0.00" timeLoss="36.74" rerouteNo="0" devices="tripinfo_flow9.1" vType="vtypeauto" speedFactor="1.16" vaporized=""/>
    <tripinfo id="flow6.0" depart="0.00" departLane="D4D3_0" departPos="4.10" departSpeed="0.00" departDelay="0.00" arrival="66.60" arrivalLane="D1D0_0" arrivalPos="79.20" arrivalSpeed="14.51" duration="66.60" routeLength="375.10" waitingTime="23.20" waitingCount="3" stopTime="0.00" timeLoss="40.69" rerouteNo="0" devices="tripinfo_flow6.0" vType="vtypeauto" speedFactor="1.05" vaporized=""/>
    <tripinfo id="flow6.1" depart="6.00" departLane="D4D3_0" departPos="4.10" departSpeed="0.00" departDelay="0.00" arrival="67.30" arrivalLane="D1D0_0" arrivalPos="79.20" arrivalSpeed="12.12" duration="61.30" routeLength="375.10" waitingTime="17.50" waitingCount="2" stopTime="0.00" timeLoss="30.52" rerouteNo="0" devices="tripinfo_flow6.1" vType="vtypeauto" speedFactor="0.88" vaporized=""/>
    <tripinfo id="flow6.2" depart="12.00" departLane="D4D3_0" departPos="4.10" departSpeed="0.00" departDelay="0.00" arrival="68.90" arrivalLane="D1D0_1" arrivalPos="79.20" arrivalSpeed="12.74" duration="56.90" routeLength="375.10" waitingTime="6.80" waitingCount="2" stopTime="0.00" timeLoss="27.38" rerouteNo="0" devices="tripinfo_flow6.2" vType="vtypeauto" speedFactor="0.92" vaporized=""/>
    <tripinfo id="flow6.3" depart="18.00" departLane="D4D3_0" departPos="4.10" departSpeed="0.00" departDelay="0.00" arrival="70.40" arrivalLane="D1D0_1" arrivalPos="79.20" arrivalSpeed="13.49" duration="52.40" routeLength="375.10" waitingTime="4.90" waitingCount="1" stopTime="0.00" timeLoss="24.60" rerouteNo="0" devices="tripinfo_flow6.3" vType="vtypeauto" speedFactor="0.97" vaporized=""/>
    <tripinfo id="flow6.4" depart="24.00" departLane="D4D3_0" departPos="4.10" departSpeed="0.00" departDelay="0.00" arrival="71.90" arrivalLane="D1D0_1" arrivalPos="79.20" arrivalSpeed="13.81" duration="47.90" routeLength="375.10" waitingTime="3.60" waitingCount="1" stopTime="0.00" timeLoss="20.77" rerouteNo="0" devices="tripinfo_flow6.4" vType="vtypeauto" speedFactor="1.00" vaporized=""/>
    <tripinfo id="flow6.5" depart="30.00" departLane="D4D3_0" departPos="4.10" departSpeed="0.00" departDelay="0.00" arrival="73.70" arrivalLane="D1D0_1" arrivalPos="79.20" arrivalSpeed="12.41" duration="43.70" routeLength="375.10" waitingTime="0.00" waitingCount="0" stopTime="0.00" timeLoss="13.58" rerouteNo="0" devices="tripinfo_flow6.5" vType="vtypeauto" speedFactor="0.90" vaporized=""/>
    <tripinfo id="flow2.0" depart="0.00" departLane="A0A1_0" departPos="4.10" departSpeed="0.00" departDelay="0.00" arrival="76.40" arrivalLane="C3D3_0" arrivalPos="79.20" arrivalSpeed="10.18" duration="76.40" routeLength="540.89" waitingTime="10.30" waitingCount="2" stopTime="0.00" timeLoss="34.40" rerouteNo="0" devices="tripinfo_flow2.0" vType="vtypeauto" speedFactor="1.01" vaporized=""/>
    <tripinfo id="flow2.1" depart="6.00" departLane="A0A1_0" departPos="4.10" departSpeed="0.00" departDelay="0.00" arrival="77.90" arrivalLane="C3D3_0" arrivalPos="79.20" arrivalSpeed="11.96" duration="71.90" routeLength="540.89" waitingTime="0.00" waitingCount="0" stopTime="0.00" timeLoss="31.30" rerouteNo="0" devices="tripinfo_flow2.1" vType="vtypeauto" speedFactor="1.05" vaporized=""/>
    <tripinfo id="flow2.2" depart="12.00" departLane="A0A1_0" departPos="4.10" departSpeed="0.00" departDelay="0.00" arrival="79.40" arrivalLane="C3D3_0" arrivalPos="79.20" arrivalSpeed="13.44" duration="67.40" routeLength="540.89" waitingTime="0.00" waitingCount="0" stopTime="0.00" timeLoss="23.76" rerouteNo="0" devices="tripinfo_flow2.2" vType="vtypeauto" speedFactor="0.97" vaporized=""/>
    <tripinfo id="flow1.2" depart="12.00" departLane="A3B3_0" departPos="4.10" departSpeed="0.00" departDelay="0.00" arrival="79.80" arrivalLane="D3E3_1" arrivalPos="79.20" arrivalSpeed="13.97" duration="67.80" routeLength="375.10" waitingTime="23.70" waitingCount="3" stopTime="0.00" timeLoss="41.07" rerouteNo="0" devices="tripinfo_flow1.2" vType="vtypeauto" speedFactor="1.01" vaporized=""/>
    <tripinfo id="flow1.0" depart="0.00" departLane="A3B3_0" departPos="4.10" departSpeed="0.00" departDelay="0.00" arrival="80.00" arrivalLane="D3E3_0" arrivalPos="79.20" arrivalSpeed="12.92" duration="80.00" routeLength="375.10" waitingTime="39.70" waitingCount="2" stopTime="0.00" timeLoss="51.18" rerouteNo="0" devices="tripinfo_flow1.0" vType="vtypeauto" speedFactor="0.94" vaporized=""/>
    <tripinfo id="flow1.3" depart="18.00" departLane="A3B3_0" departPos="4.10" departSpeed="0.00" departDelay="0.00" arrival="81.30" arrivalLane="D3E3_1" arrivalPos="79.20" arrivalSpeed="15.95" duration="63.30" routeLength="375.10" waitingTime="13.20" waitingCount="1" stopTime="0.00" timeLoss="39.83" rerouteNo="0" devices="tripinfo_flow1.3" vType="vtypeauto" speedFactor="1.15" vaporized=""/>
    <tripinfo id="flow1.1" depart="6.00" departLane="A3B3_0" departPos="4.10" departSpeed="0.00" departDelay="0.00" arrival="81.50" arrivalLane="D3E3_0" arrivalPos="79.20" arrivalSpeed="14.18" duration="75.50" routeLength="375.10" waitingTime="27.10" waitingCount="3" stopTime="0.00" timeLoss="49.14" rerouteNo="0" devices="tripinfo_flow1.1" vType="vtypeauto" speedFactor="1.03" vaporized=""/>
    <tripinfo id="flow5.0" depart="0.00" departLane="E2D2_0" departPos="4.10" departSpeed="0.00" departDelay="0.00" arrival="82.00" arrivalLane="B1A1_0" arrivalPos="79.20" arrivalSpeed="11.48" duration="82.00" routeLength="635.44" waitingTime="9.80" waitingCount="2" stopTime="0.00" timeLoss="21.86" rerouteNo="0" devices="tripinfo_flow5.0" vType="vtypeauto" speedFactor="0.83" vaporized=""/>
    <tripinfo id="flow1.5" depart="30.00" departLane="A3B3_0" departPos="4.10" departSpeed="0.00" departDelay="0.00" arrival="82.60" arrivalLane="D3E3_1" arrivalPos="79.20" arrivalSpeed="16.14" duration="52.60" routeLength="375.10" waitingTime="4.70" waitingCount="2" stopTime="0.00" timeLoss="29.48" rerouteNo="0" devices="tripinfo_flow1.5" vType="vtypeauto" speedFactor="1.17" vaporized=""/>
    <tripinfo id="flow1.4" depart="24.00" departLane="A3B3_0" departPos="4.10" departSpeed="0.00" departDelay="0.00" arrival="83.10" arrivalLane="D3E3_0" arrivalPos="79.20" arrivalSpeed="13.20" duration="59.10" routeLength="375.10" waitingTime="10.40" waitingCount="2" stopTime="0.00" timeLoss="30.85" rerouteNo="0" devices="tripinfo_flow1.4" vType="vtypeauto" speedFactor="0.96" vaporized=""/>
    <tripinfo id="flow4.4" depart="37.20" departLane="C0C1_0" departPos="4.10" departSpeed="0.00" departDelay="13.20" arrival="83.50" arrivalLane="C3C4_0" arrivalPos="79.20" arrivalSpeed="14.41" duration="46.30" routeLength="375.10" waitingTime="12.00" waitingCount="1" stopTime="0.00" timeLoss="20.33" rerouteNo="0" devices="tripinfo_flow4.4" vType="vtypeauto" speedFactor="1.04" vaporized=""/>
    <tripinfo id="flow4.3" depart="26.50" departLane="C0C1_0" departPos="4.10" departSpeed="0.00" departDelay="8.50" arrival="84.10" arrivalLane="C3C4_1" arrivalPos="79.20" arrivalSpeed="13.80" duration="57.60" routeLength="375.10" waitingTime="18.40" waitingCount="1" stopTime="0.00" timeLoss="30.45" rerouteNo="0" devices="tripinfo_flow4.3" vType="vtypeauto" speedFactor="0.99" vaporized=""/>
    <tripinfo id="flow1.6" depart="36.00" departLane="A3B3_0" departPos="4.10" departSpeed="0.00" departDelay="0.00" arrival="84.10" arrivalLane="D3E3_1" arrivalPos="79.20" arrivalSpeed="15.49" duration="48.10" routeLength="375.10" waitingTime="0.00" waitingCount="0" stopTime="0.00" timeLoss="23.89" rerouteNo="0" devices="tripinfo_flow1.6" vType="vtypeauto" speedFactor="1.12" vaporized=""/>
    <tripinfo id="flow4.5" depart="40.10" departLane="C0C1_0" departPos="4.10" departSpeed="0.00" departDelay="10.10" arrival="85.30" arrivalLane="C3C4_0" arrivalPos="79.20" arrivalSpeed="13.85" duration="45.20" routeLength="375.10" waitingTime="6.20" waitingCount="1" stopTime="0.00" timeLoss="18.28" rerouteNo="0" devices="tripinfo_flow4.5" vType="vtypeauto" speedFactor="1.00" vaporized=""/>
    <tripinfo id="flow4.6" depart="49.80" departLane="C0C1_0" departPos="4.10" departSpeed="0.00" departDelay="13.80" arrival="86.20" arrivalLane="C3C4_1" arrivalPos="79.20" arrivalSpeed="12.95" duration="36.40" routeLength="375.10" waitingTime="0.00" waitingCount="0" stopTime="0.00" timeLoss="7.54" rerouteNo="0" devices="tripinfo_flow4.6" vType="vtypeauto" speedFactor="0.94" vaporized=""/>
    <tripinfo id="flow0.1" depart="6.00" departLane="B4B3_0" departPos="4.10" departSpeed="0.00" departDelay="0.00" arrival="90.40" arrivalLane="B3A3_0" arrivalPos="79.20" arrivalSpeed="15.12" duration="84.40" routeLength="570.75" waitingTime="4.70" waitingCount="3" stopTime="0.00" timeLoss="44.80" rerouteNo="0" devices="tripinfo_flow0.1" vType="vtypeauto" speedFactor="1.09" vaporized=""/>
    <tripinfo id="flow0.0" depart="0.00" departLane="B4B3_0" departPos="4.10" departSpeed="0.00" departDelay="0.00" arrival="90.70" arrivalLane="B3A3_1" arrivalPos="79.20" arrivalSpeed="14.68" duration="90.70" routeLength="570.75" waitingTime="24.10" waitingCount="4" stopTime="0.00" timeLoss="49.92" rerouteNo="0" devices="tripinfo_flow0.0" vType="vtypeauto" speedFactor="1.06" vaporized=""/>
    <tripinfo id="flow8.0" depart="2.80" departLane="D4D3_0" departPos="4.10" departSpeed="0.00" departDelay="2.80" arrival="90.70" arrivalLane="B1A1_1" arrivalPos="79.20" arrivalSpeed="12.92" duration="87.90" routeLength="563.33" waitingTime="11.20" waitingCount="4" stopTime="0.00" timeLoss="43.84" rerouteNo="0" devices="tripinfo_flow8.0" vType="vtypeauto" speedFactor="0.94" vaporized=""/>
    <tripinfo id="flow0.3" depart="18.00" departLane="B4B3_0" departPos="4.10" departSpeed="0.00" departDelay="0.00" arrival="91.80" arrivalLane="B3A3_0" arrivalPos="79.20" arrivalSpeed="16.33" duration="73.80" routeLength="570.75" waitingTime="6.20" waitingCount="1" stopTime="0.00" timeLoss="37.16" rerouteNo="0" devices="tripinfo_flow0.3" vType="vtypeauto" speedFactor="1.18" vaporized=""/>
    <tripinfo id="flow0.2" depart="12.00" departLane="B4B3_0" departPos="4.10" departSpeed="0.00" departDelay="0.00" arrival="92.20" arrivalLane="B3A3_1" arrivalPos="79.20" arrivalSpeed="14.11" duration="80.20" routeLength="570.75" waitingTime="0.90" waitingCount="1" stopTime="0.00" timeLoss="37.74" rerouteNo="0" devices="tripinfo_flow0.2" vType="vtypeauto" speedFactor="1.02" vaporized=""/>
    <tripinfo id="flow8.1" depart="8.80" departLane="D4D3_0" departPos="4.10" departSpeed="0.00" departDelay="2.80" arrival="92.30" arrivalLane="B1A1_1" arrivalPos="79.20" arrivalSpeed="12.90" duration="83.50" routeLength="563.33" waitingTime="5.40" waitingCount="1" stopTime="0.00" timeLoss="39.39" rerouteNo="0" devices="tripinfo_flow8.1" vType="vtypeauto" speedFactor="0.94" vaporized=""/>
    <tripinfo id="flow9.5" depart="30.00" departLane="A2B2_0" departPos="4.10" departSpeed="0.00" departDelay="0.00" arrival="92.30" arrivalLane="D2E2_0" arrivalPos="79.20" arrivalSpeed="13.46" duration="62.30" routeLength="375.10" waitingTime="22.20" waitingCount="2" stopTime="0.00" timeLoss="34.41" rerouteNo="0" devices="tripinfo_flow9.5" vType="vtypeauto" speedFactor="0.97" vaporized=""/>
    <tripinfo id="flow9.7" depart="42.00" departLane="A2B2_0" departPos="4.10" departSpeed="0.00" departDelay="0.00" arrival="93.60" arrivalLane="D2E2_1" arrivalPos="79.20" arrivalSpeed="15.08" duration="51.60" routeLength="375.10" waitingTime="4.10" waitingCount="1" stopTime="0.00" timeLoss="26.74" rerouteNo="0" devices="tripinfo_flow9.7" vType="vtypeauto" speedFactor="1.09" vaporized=""/>
    <tripinfo id="flow0.4" depart="24.00" departLane="B4B3_0" departPos="4.10" departSpeed="0.00" departDelay="0.00" arrival="93.70" arrivalLane="B3A3_1" arrivalPos="79.20" arrivalSpeed="14.26" duration="69.70" routeLength="570.75" waitingTime="0.00" waitingCount="0" stopTime="0.00" timeLoss="27.79" rerouteNo="0" devices="tripinfo_flow0.4" vType="vtypeauto" speedFactor="1.03" vaporized=""/>
    <tripinfo id="flow8.2" depart="14.70" departLane="D4D3_0" departPos="4.10" departSpeed="0.00" departDelay="2.70" arrival="93.80" arrivalLane="B1A1_0" arrivalPos="79.20" arrivalSpeed="15.69" duration="79.10" routeLength="563.33" waitingTime="4.00" waitingCount="1" stopTime="0.00" timeLoss="42.53" rerouteNo="0" devices="tripinfo_flow8.2" vType="vtypeauto" speedFactor="1.13" vaporized=""/>
    <tripinfo id="flow8.3" depart="20.70" departLane="D4D3_0" departPos="4.10" departSpeed="0.00" departDelay="2.70" arrival="93.80" arrivalLane="B1A1_1" arrivalPos="79.20" arrivalSpeed="15.22" duration="73.10" routeLength="563.33" waitingTime="2.70" waitingCount="1" stopTime="0.00" timeLoss="35.59" rerouteNo="0" devices="tripinfo_flow8.3" vType="vtypeauto" speedFactor="1.10" vaporized=""/>
    <tripinfo id="flow9.4" depart="24.00" departLane="A2B2_0" departPos="4.10" departSpeed="0.00" departDelay="0.00" arrival="94.00" arrivalLane="D2E2_0" arrivalPos="79.20" arrivalSpeed="11.70" duration="70.00" routeLength="375.10" waitingTime="27.90" waitingCount="2" stopTime="0.00" timeLoss="38.24" rerouteNo="0" devices="tripinfo_flow9.4" vType="vtypeauto" speedFactor="0.85" vaporized=""/>
    <tripinfo id="flow9.8" depart="48.00" departLane="A2B2_0" departPos="4.10" departSpeed="0.00" departDelay="0.00" arrival="95.30" arrivalLane="D2E2_1" arrivalPos="79.20" arrivalSpeed="14.08" duration="47.30" routeLength="375.10" waitingTime="2.30" waitingCount="1" stopTime="0.00" timeLoss="20.83" rerouteNo="0" devices="tripinfo_flow9.8" vType="vtypeauto" speedFactor="1.02" vaporized=""/>
    <tripinfo id="flow8.5" depart="32.70" departLane="D4D3_0" departPos="4.10" departSpeed="0.00" departDelay="2.70" arrival="95.40" arrivalLane="B1A1_1" arrivalPos="79.20" arrivalSpeed="14.16" duration="62.70" routeLength="563.33" waitingTime="0.00" waitingCount="0" stopTime="0.00" timeLoss="22.31" rerouteNo="0" devices="tripinfo_flow8.5" vType="vtypeauto" speedFactor="1.02" vaporized=""/>
    <tripinfo id="flow9.6" depart="36.00" departLane="A2B2_0" departPos="4.10" departSpeed="0.00" departDelay="0.00" arrival="95.60" arrivalLane="D2E2_0" arrivalPos="79.20" arrivalSpeed="14.08" duration="59.60" routeLength="375.10" waitingTime="9.00" waitingCount="2" stopTime="0.00" timeLoss="33.09" rerouteNo="0" devices="tripinfo_flow9.6" vType="vtypeauto" speedFactor="1.02" vaporized=""/>
    <tripinfo id="flow0.5" depart="30.00" departLane="B4B3_0" departPos="4.10" departSpeed="0.00" departDelay="0.00" arrival="96.00" arrivalLane="B3A3_1" arrivalPos="79.20" arrivalSpeed="11.78" duration="66.00" routeLength="570.75" waitingTime="0.00" waitingCount="0" stopTime="0.00" timeLoss="15.45" rerouteNo="0" devices="tripinfo_flow0.5" vType="vtypeauto" speedFactor="0.85" vaporized=""/>
    <tripinfo id="flow8.4" depart="26.80" departLane="D4D3_0" departPos="4.10" departSpeed="0.00" departDelay="2.80" arrival="97.90" arrivalLane="B1A1_1" arrivalPos="79.20" arrivalSpeed="12.18" duration="71.10" routeLength="563.33" waitingTime="1.60" waitingCount="1" stopTime="0.00" timeLoss="23.92" rerouteNo="0" devices="tripinfo_flow8.4" vType="vtypeauto" speedFactor="0.88" vaporized=""/>
    <tripinfo id="flow0.6" depart="36.00" departLane="B4B3_0" departPos="4.10" departSpeed="0.00" departDelay="0.00" arrival="108.80" arrivalLane="B3A3_1" arrivalPos="79.20" arrivalSpeed="14.93" duration="72.80" routeLength="570.75" waitingTime="8.20" waitingCount="2" stopTime="0.00" timeLoss="32.87" rerouteNo="0" devices="tripinfo_flow0.6" vType="vtypeauto" speedFactor="1.08" vaporized=""/>
    <tripinfo id="flow0.7" depart="42.00" departLane="B4B3_0" departPos="4.10" departSpeed="0.00" departDelay="0.00" arrival="110.90" arrivalLane="B3A3_1" arrivalPos="79.20" arrivalSpeed="14.13" duration="68.90" routeLength="570.75" waitingTime="0.00" waitingCount="0" stopTime="0.00" timeLoss="26.63" rerouteNo="0" devices="tripinfo_flow0.7" vType="vtypeauto" speedFactor="1.02" vaporized=""/>
    <tripinfo id="flow6.7" depart="42.00" departLane="D4D3_0" departPos="4.10" departSpeed="0.00" departDelay="0.00" arrival="120.50" arrivalLane="D1D0_0" arrivalPos="79.20" arrivalSpeed="14.30" duration="78.50" routeLength="375.10" waitingTime="39.40" waitingCount="2" stopTime="0.00" timeLoss="52.35" rerouteNo="0" devices="tripinfo_flow6.7" vType="vtypeauto" speedFactor="1.03" vaporized=""/>
    <tripinfo id="flow6.8" depart="48.00" departLane="D4D3_0" departPos="4.10" departSpeed="0.00" departDelay="0.00" arrival="122.10" arrivalLane="D1D0_1" arrivalPos="79.20" arrivalSpeed="13.83" duration="74.10" routeLength="375.10" waitingTime="26.20" waitingCount="2" stopTime="0.00" timeLoss="47.12" rerouteNo="0" devices="tripinfo_flow6.8" vType="vtypeauto" speedFactor="1.00" vaporized=""/>
    <tripinfo id="flow6.6" depart="36.00" departLane="D4D3_0" departPos="4.10" departSpeed="0.00" departDelay="0.00" arrival="122.50" arrivalLane="D1D0_0" arrivalPos="79.20" arrivalSpeed="12.59" duration="86.50" routeLength="375.10" waitingTime="41.60" waitingCount="2" stopTime="0.00" timeLoss="56.72" rerouteNo="0" devices="tripinfo_flow6.6" vType="vtypeauto" speedFactor="0.91" vaporized=""/>
    <tripinfo id="flow6.9" depart="54.00" departLane="D4D3_0" departPos="4.10" departSpeed="0.00" departDelay="0.00" arrival="123.60" arrivalLane="D1D0_1" arrivalPos="79.20" arrivalSpeed="14.01" duration="69.60" routeLength="375.10" waitingTime="19.80" waitingCount="1" stopTime="0.00" timeLoss="42.86" rerouteNo="0" devices="tripinfo_flow6.9" vType="vtypeauto" speedFactor="1.01" vaporized=""/>
    <tripinfo id="flow6.11" depart="66.00" departLane="D4D3_0" departPos="4.10" departSpeed="0.00" departDelay="0.00" arrival="125.10" arrivalLane="D1D0_1" arrivalPos="79.20" arrivalSpeed="16.26" duration="59.10" routeLength="375.10" waitingTime="8.20" waitingCount="1" stopTime="0.00" timeLoss="36.08" rerouteNo="0" devices="tripinfo_flow6.11" vType="vtypeauto" speedFactor="1.18" vaporized=""/>
    <tripinfo id="flow6.12" depart="72.00" departLane="D4D3_0" departPos="4.10" departSpeed="0.00" departDelay="0.00" arrival="126.60" arrivalLane="D1D0_1" arrivalPos="79.20" arrivalSpeed="14.30" duration="54.60" routeLength="375.10" waitingTime="0.00" waitingCount="0" stopTime="0.00" timeLoss="28.42" rerouteNo="0" devices="tripinfo_flow6.12" vType="vtypeauto" speedFactor="1.03" vaporized=""/>
    <tripinfo id="flow6.13" depart="78.00" departLane="D4D3_0" departPos="4.10" departSpeed="0.00" departDelay="0.00" arrival="128.10" arrivalLane="D1D0_1" arrivalPos="79.20" arrivalSpeed="15.51" duration="50.10" routeLength="375.10" waitingTime="0.00" waitingCount="0" stopTime="0.00" timeLoss="25.90" rerouteNo="0" devices="tripinfo_flow6.13" vType="vtypeauto" speedFactor="1.12" vaporized=""/>
    <tripinfo id="flow6.10" depart="60.00" departLane="D4D3_0" departPos="4.10" departSpeed="0.00" departDelay="0.00" arrival="130.20" arrivalLane="D1D0_0" arrivalPos="79.20" arrivalSpeed="13.99" duration="70.20" routeLength="375.10" waitingTime="14.30" waitingCount="1" stopTime="0.00" timeLoss="43.56" rerouteNo="0" devices="tripinfo_flow6.10" vType="vtypeauto" speedFactor="1.01" vaporized=""/>
    <tripinfo id="flow6.14" depart="84.00" departLane="D4D3_0" departPos="4.10" departSpeed="0.00" departDelay="0.00" arrival="130.30" arrivalLane="D1D0_1" arrivalPos="79.20" arrivalSpeed="12.25" duration="46.30" routeLength="375.10" waitingTime="0.00" waitingCount="0" stopTime="0.00" timeLoss="15.81" rerouteNo="0" devices="tripinfo_flow6.14" vType="vtypeauto" speedFactor="0.89" vaporized=""/>
    <tripinfo id="flow6.15" depart="90.00" departLane="D4D3_0" departPos="4.10" departSpeed="0.00" departDelay="0.00" arrival="131.80" arrivalLane="D1D0_1" arrivalPos="79.20" arrivalSpeed="15.20" duration="41.80" routeLength="375.10" waitingTime="0.00" waitingCount="0" stopTime="0.00" timeLoss="18.85" rerouteNo="0" devices="tripinfo_flow6.15" vType="vtypeauto" speedFactor="1.18" vaporized=""/>
    <tripinfo id="flow6.16" depart="96.00" departLane="D4D3_0" departPos="4.10" departSpeed="0.00" departDelay="0.00" arrival="133.30" arrivalLane="D1D0_1" arrivalPos="79.20" arrivalSpeed="13.92" duration="37.30" routeLength="375.10" waitingTime="0.00" waitingCount="0" stopTime="0.00" timeLoss="10.38" rerouteNo="0" devices="tripinfo_flow6.16" vType="vtypeauto" speedFactor="1.00" vaporized=""/>
    <tripinfo id="flow0.9" depart="54.00" departLane="B4B3_0" departPos="4.10" departSpeed="0.00" departDelay="0.00" arrival="133.50" arrivalLane="B3A3_0" arrivalPos="79.20" arrivalSpeed="14.10" duration="79.50" routeLength="570.75" waitingTime="9.80" waitingCount="2" stopTime="0.00" timeLoss="36.96" rerouteNo="0" devices="tripinfo_flow0.9" vType="vtypeauto" speedFactor="1.02" vaporized=""/>
    <tripinfo id="flow0.8" depart="48.00" departLane="B4B3_0" departPos="4.10" departSpeed="0.00" departDelay="0.00" arrival="133.80" arrivalLane="B3A3_1" arrivalPos="79.20" arrivalSpeed="14.35" duration="85.80" routeLength="570.75" waitingTime="10.00" waitingCount="1" stopTime="0.00" timeLoss="43.98" rerouteNo="0" devices="tripinfo_flow0.8" vType="vtypeauto" speedFactor="1.03" vaporized=""/>
    <tripinfo id="flow6.17" depart="102.00" departLane="D4D3_0" departPos="4.10" departSpeed="0.00" departDelay="0.00" arrival="134.80" arrivalLane="D1D0_1" arrivalPos="79.20" arrivalSpeed="15.01" duration="32.80" routeLength="375.10" waitingTime="0.00" waitingCount="0" stopTime="0.00" timeLoss="7.94" rerouteNo="0" devices="tripinfo_flow6.17" vType="vtypeauto" speedFactor="1.09" vaporized=""/>
    <tripinfo id="flow0.10" depart="60.00" departLane="B4B3_0" departPos="4.10" departSpeed="0.00" departDelay="0.00" arrival="135.30" arrivalLane="B3A3_1" arrivalPos="79.20" arrivalSpeed="14.75" duration="75.30" routeLength="570.75" waitingTime="0.60" waitingCount="1" stopTime="0.00" timeLoss="34.67" rerouteNo="0" devices="tripinfo_flow0.10" vType="vtypeauto" speedFactor="1.06" vaporized=""/>
    <tripinfo id="flow0.11" depart="66.00" departLane="B4B3_0" departPos="4.10" departSpeed="0.00" departDelay="0.00" arrival="135.30" arrivalLane="B3A3_0" arrivalPos="79.20" arrivalSpeed="12.83" duration="69.30" routeLength="570.75" waitingTime="0.00" waitingCount="0" stopTime="0.00" timeLoss="22.73" rerouteNo="0" devices="tripinfo_flow0.11" vType="vtypeauto" speedFactor="0.93" vaporized=""/>
    <tripinfo id="flow6.18" depart="108.00" departLane="D4D3_0" departPos="4.10" departSpeed="0.00" departDelay="0.00" arrival="137.50" arrivalLane="D1D0_1" arrivalPos="79.20" arrivalSpeed="14.99" duration="29.50" routeLength="375.10" waitingTime="0.00" waitingCount="0" stopTime="0.00" timeLoss="4.45" rerouteNo="0" devices="tripinfo_flow6.18" vType="vtypeauto" speedFactor="1.08" vaporized=""/>
    <tripinfo id="flow2.3" depart="18.00" departLane="A0A1_0" departPos="4.10" departSpeed="0.00" departDelay="0.00" arrival="142.60" arrivalLane="C3D3_0" arrivalPos="79.20" arrivalSpeed="7.60" duration="124.60" routeLength="540.89" waitingTime="43.00" waitingCount="3" stopTime="0.00" timeLoss="82.23" rerouteNo="0" devices="tripinfo_flow2.3" vType="vtypeauto" speedFactor="1.01" vaporized=""/>
    <tripinfo id="flow2.4" depart="24.00" departLane="A0A1_0" departPos="4.10" departSpeed="0.00" departDelay="0.00" arrival="144.30" arrivalLane="C3D3_0" arrivalPos="79.20" arrivalSpeed="9.53" duration="120.30" routeLength="540.89" waitingTime="28.30" waitingCount="2" stopTime="0.00" timeLoss="81.35" rerouteNo="0" devices="tripinfo_flow2.4" vType="vtypeauto" speedFactor="1.09" vaporized=""/>
    <tripinfo id="flow6.19" depart="114.00" departLane="D4D3_0" departPos="4.10" departSpeed="0.00" departDelay="0.00" arrival="144.30" arrivalLane="D1D0_1" arrivalPos="79.20" arrivalSpeed="14.25" duration="30.30" routeLength="375.10" waitingTime="0.00" waitingCount="0" stopTime="0.00" timeLoss="4.08" rerouteNo="0" devices="tripinfo_flow6.19" vType="vtypeauto" speedFactor="1.03" vaporized=""/>
    <tripinfo id="flow2.6" depart="36.00" departLane="A0A1_0" departPos="4.10" departSpeed="0.00" departDelay="0.00" arrival="145.80" arrivalLane="C3D3_0" arrivalPos="79.20" arrivalSpeed="10.66" duration="109.80" routeLength="540.89" waitingTime="28.60" waitingCount="2" stopTime="0.00" timeLoss="67.94" rerouteNo="0" devices="tripinfo_flow2.6" vType="vtypeauto" speedFactor="1.02" vaporized=""/>
    <tripinfo id="flow2.5" depart="30.00" departLane="A0A1_0" departPos="4.10" departSpeed="0.00" departDelay="0.00" arrival="147.30" arrivalLane="C3D3_0" arrivalPos="79.20" arrivalSpeed="12.07" duration="117.30" routeLength="540.89" waitingTime="21.10" waitingCount="3" stopTime="0.00" timeLoss="75.48" rerouteNo="0" devices="tripinfo_flow2.5" vType="vtypeauto" speedFactor="1.02" vaporized=""/>
    <tripinfo id="flow2.7" depart="42.00" departLane="A0A1_0" departPos="4.10" departSpeed="0.00" departDelay="0.00" arrival="147.50" arrivalLane="C3D3_1" arrivalPos="79.20" arrivalSpeed="11.15" duration="105.50" routeLength="540.89" waitingTime="20.60" waitingCount="1" stopTime="0.00" timeLoss="60.26" rerouteNo="0" devices="tripinfo_flow2.7" vType="vtypeauto" speedFactor="0.94" vaporized=""/>
    <tripinfo id="flow1.8" depart="48.00" departLane="A3B3_0" departPos="4.10" departSpeed="0.00" departDelay="0.00" arrival="147.50" arrivalLane="D3E3_1" arrivalPos="79.20" arrivalSpeed="13.76" duration="99.50" routeLength="375.10" waitingTime="55.50" waitingCount="3" stopTime="0.00" timeLoss="72.43" rerouteNo="0" devices="tripinfo_flow1.8" vType="vtypeauto" speedFactor="1.00" vaporized=""/>
    <tripinfo id="flow1.7" depart="42.00" departLane="A3B3_0" departPos="4.10" departSpeed="0.00" departDelay="0.00" arrival="147.90" arrivalLane="D3E3_0" arrivalPos="79.20" arrivalSpeed="13.46" duration="105.90" routeLength="375.10" waitingTime="61.90" waitingCount="3" stopTime="0.00" timeLoss="78.08" rerouteNo="0" devices="tripinfo_flow1.7" vType="vtypeauto" speedFactor="0.97" vaporized=""/>
    <tripinfo id="flow2.8" depart="48.00" departLane="A0A1_0" departPos="4.10" departSpeed="0.00" departDelay="0.00" arrival="149.00" arrivalLane="C3D3_1" arrivalPos="79.20" arrivalSpeed="12.72" duration="101.00" routeLength="540.89" waitingTime="17.30" waitingCount="1" stopTime="0.00" timeLoss="59.24" rerouteNo="0" devices="tripinfo_flow2.8" vType="vtypeauto" speedFactor="1.02" vaporized=""/>