<?xml version="1.0" encoding="UTF-8"?>

<!-- generated on 2024-10-30 19:06:27 by Eclipse SUMO sumo Version 1.20.0
<configuration xmlns:xsi="http://www.w3.org/2001/XMLSchema-instance" xsi:noNamespaceSchemaLocation="http://sumo.dlr.de/xsd/sumoConfiguration.xsd">

    <input>
        <net-file value="./sim_cfg_grid_2_lanes/grid.net.xml"/>
        <route-files value="./sim_cfg_grid_2_lanes/10x0.3.rou.xml"/>
    </input>

    <output>
        <tripinfo-output value="./sim_cfg_grid_2_lanes/tripinfo-platooning_0.38.xml"/>
    </output>

    <time>
        <begin value="0"/>
        <end value="500"/>
        <step-length value="0.1"/>
    </time>

    <traci_server>
        <remote-port value="50088"/>
    </traci_server>

    <gui_only>
        <gui-settings-file value="./sim_cfg_grid_2_lanes/gui_settings.xml"/>
    </gui_only>

</configuration>
-->

<tripinfos xmlns:xsi="http://www.w3.org/2001/XMLSchema-instance" xsi:noNamespaceSchemaLocation="http://sumo.dlr.de/xsd/tripinfo_file.xsd">
    <tripinfo id="flow9.1" depart="3.00" departLane="A2B2_0" departPos="4.10" departSpeed="0.00" departDelay="0.00" arrival="40.70" arrivalLane="D2E2_1" arrivalPos="79.20" arrivalSpeed="15.97" duration="37.70" routeLength="375.10" waitingTime="3.80" waitingCount="1" stopTime="0.00" timeLoss="14.32" rerouteNo="0" devices="tripinfo_flow9.1" vType="vtypeauto" speedFactor="1.16" vaporized=""/>
    <tripinfo id="flow9.0" depart="0.00" departLane="A2B2_0" departPos="4.10" departSpeed="0.00" departDelay="0.00" arrival="43.70" arrivalLane="D2E2_0" arrivalPos="79.20" arrivalSpeed="11.81" duration="43.70" routeLength="375.10" waitingTime="5.50" waitingCount="1" stopTime="0.00" timeLoss="12.19" rerouteNo="0" devices="tripinfo_flow9.0" vType="vtypeauto" speedFactor="0.86" vaporized=""/>
    <tripinfo id="flow9.3" depart="9.00" departLane="A2B2_0" departPos="4.10" departSpeed="0.00" departDelay="0.00" arrival="44.80" arrivalLane="D2E2_1" arrivalPos="79.20" arrivalSpeed="12.50" duration="35.80" routeLength="375.10" waitingTime="0.00" waitingCount="0" stopTime="0.00" timeLoss="5.74" rerouteNo="0" devices="tripinfo_flow9.3" vType="vtypeauto" speedFactor="0.90" vaporized=""/>
    <tripinfo id="flow9.2" depart="6.00" departLane="A2B2_0" departPos="4.10" departSpeed="0.00" departDelay="0.00" arrival="45.30" arrivalLane="D2E2_0" arrivalPos="79.20" arrivalSpeed="12.88" duration="39.30" routeLength="375.10" waitingTime="0.00" waitingCount="0" stopTime="0.00" timeLoss="10.28" rerouteNo="0" devices="tripinfo_flow9.2" vType="vtypeauto" speedFactor="0.93" vaporized=""/>
    <tripinfo id="flow9.5" depart="15.00" departLane="A2B2_0" departPos="4.10" departSpeed="0.00" departDelay="0.00" arrival="46.50" arrivalLane="D2E2_1" arrivalPos="79.20" arrivalSpeed="13.45" duration="31.50" routeLength="375.10" waitingTime="0.00" waitingCount="0" stopTime="0.00" timeLoss="3.62" rerouteNo="0" devices="tripinfo_flow9.5" vType="vtypeauto" speedFactor="0.97" vaporized=""/>
    <tripinfo id="flow9.4" depart="12.00" departLane="A2B2_0" departPos="4.10" departSpeed="0.00" departDelay="0.00" arrival="47.20" arrivalLane="D2E2_0" arrivalPos="79.20" arrivalSpeed="11.77" duration="35.20" routeLength="375.10" waitingTime="0.00" waitingCount="0" stopTime="0.00" timeLoss="3.38" rerouteNo="0" devices="tripinfo_flow9.4" vType="vtypeauto" speedFactor="0.85" vaporized=""/>
    <tripinfo id="flow9.6" depart="18.00" departLane="A2B2_0" departPos="4.10" departSpeed="0.00" departDelay="0.00" arrival="48.70" arrivalLane="D2E2_0" arrivalPos="79.20" arrivalSpeed="14.18" duration="30.70" routeLength="375.10" waitingTime="0.00" waitingCount="0" stopTime="0.00" timeLoss="4.26" rerouteNo="0" devices="tripinfo_flow9.6" vType="vtypeauto" speedFactor="1.02" vaporized=""/>
    <tripinfo id="flow9.7" depart="21.00" departLane="A2B2_0" departPos="4.10" departSpeed="0.00" departDelay="0.00" arrival="50.20" arrivalLane="D2E2_0" arrivalPos="79.20" arrivalSpeed="15.00" duration="29.20" routeLength="375.10" waitingTime="0.00" waitingCount="0" stopTime="0.00" timeLoss="4.34" rerouteNo="0" devices="tripinfo_flow9.7" vType="vtypeauto" speedFactor="1.09" vaporized=""/>
    <tripinfo id="flow9.8" depart="24.00" departLane="A2B2_0" departPos="4.10" departSpeed="0.00" departDelay="0.00" arrival="54.30" arrivalLane="D2E2_0" arrivalPos="79.20" arrivalSpeed="14.13" duration="30.30" routeLength="375.10" waitingTime="0.00" waitingCount="0" stopTime="0.00" timeLoss="3.80" rerouteNo="0" devices="tripinfo_flow9.8" vType="vtypeauto" speedFactor="1.02" vaporized=""/>
    <tripinfo id="flow9.9" depart="27.00" departLane="A2B2_0" departPos="4.10" departSpeed="0.00" departDelay="0.00" arrival="55.80" arrivalLane="D2E2_0" arrivalPos="79.20" arrivalSpeed="15.20" duration="28.80" routeLength="375.10" waitingTime="0.00" waitingCount="0" stopTime="0.00" timeLoss="4.15" rerouteNo="0" devices="tripinfo_flow9.9" vType="vtypeauto" speedFactor="1.10" vaporized=""/>
    <tripinfo id="flow6.0" depart="0.00" departLane="D4D3_0" departPos="4.10" departSpeed="0.00" departDelay="0.00" arrival="72.80" arrivalLane="D1D0_0" arrivalPos="79.20" arrivalSpeed="14.48" duration="72.80" routeLength="375.10" waitingTime="32.80" waitingCount="2" stopTime="0.00" timeLoss="46.89" rerouteNo="0" devices="tripinfo_flow6.0" vType="vtypeauto" speedFactor="1.05" vaporized=""/>
    <tripinfo id="flow6.1" depart="5.60" departLane="D4D3_0" departPos="4.10" departSpeed="0.00" departDelay="2.60" arrival="73.50" arrivalLane="D1D0_1" arrivalPos="79.20" arrivalSpeed="12.16" duration="67.90" routeLength="375.10" waitingTime="26.30" waitingCount="1" stopTime="0.00" timeLoss="37.08" rerouteNo="0" devices="tripinfo_flow6.1" vType="vtypeauto" speedFactor="0.88" vaporized=""/>
    <tripinfo id="flow6.2" depart="11.20" departLane="D4D3_0" departPos="4.10" departSpeed="0.00" departDelay="5.20" arrival="75.10" arrivalLane="D1D0_1" arrivalPos="79.20" arrivalSpeed="12.71" duration="63.90" routeLength="375.10" waitingTime="21.90" waitingCount="1" stopTime="0.00" timeLoss="34.39" rerouteNo="0" devices="tripinfo_flow6.2" vType="vtypeauto" speedFactor="0.92" vaporized=""/>
    <tripinfo id="flow6.3" depart="16.80" departLane="D4D3_0" departPos="4.10" departSpeed="0.00" departDelay="7.80" arrival="76.60" arrivalLane="D1D0_1" arrivalPos="79.20" arrivalSpeed="13.40" duration="59.80" routeLength="375.10" waitingTime="17.80" waitingCount="1" stopTime="0.00" timeLoss="32.02" rerouteNo="0" devices="tripinfo_flow6.3" vType="vtypeauto" speedFactor="0.97" vaporized=""/>
    <tripinfo id="flow6.4" depart="22.40" departLane="D4D3_0" departPos="4.10" departSpeed="0.00" departDelay="10.40" arrival="78.10" arrivalLane="D1D0_1" arrivalPos="79.20" arrivalSpeed="13.77" duration="55.70" routeLength="375.10" waitingTime="13.40" waitingCount="1" stopTime="0.00" timeLoss="28.62" rerouteNo="0" devices="tripinfo_flow6.4" vType="vtypeauto" speedFactor="1.00" vaporized=""/>
    <tripinfo id="flow1.1" depart="3.00" departLane="A3B3_0" departPos="4.10" departSpeed="0.00" departDelay="0.00" arrival="79.70" arrivalLane="D3E3_1" arrivalPos="79.20" arrivalSpeed="14.20" duration="76.70" routeLength="375.10" waitingTime="36.90" waitingCount="2" stopTime="0.00" timeLoss="50.35" rerouteNo="0" devices="tripinfo_flow1.1" vType="vtypeauto" speedFactor="1.03" vaporized=""/>
    <tripinfo id="flow6.5" depart="28.00" departLane="D4D3_0" departPos="4.10" departSpeed="0.00" departDelay="13.00" arrival="80.00" arrivalLane="D1D0_1" arrivalPos="79.20" arrivalSpeed="12.37" duration="52.00" routeLength="375.10" waitingTime="8.30" waitingCount="1" stopTime="0.00" timeLoss="21.92" rerouteNo="0" devices="tripinfo_flow6.5" vType="vtypeauto" speedFactor="0.90" vaporized=""/>
    <tripinfo id="flow1.0" depart="0.00" departLane="A3B3_0" departPos="4.10" departSpeed="0.00" departDelay="0.00" arrival="80.60" arrivalLane="D3E3_0" arrivalPos="79.20" arrivalSpeed="13.02" duration="80.60" routeLength="375.10" waitingTime="39.70" waitingCount="2" stopTime="0.00" timeLoss="51.78" rerouteNo="0" devices="tripinfo_flow1.0" vType="vtypeauto" speedFactor="0.94" vaporized=""/>
    <tripinfo id="flow1.3" depart="9.00" departLane="A3B3_0" departPos="4.10" departSpeed="0.00" departDelay="0.00" arrival="81.10" arrivalLane="D3E3_1" arrivalPos="79.20" arrivalSpeed="15.92" duration="72.10" routeLength="375.10" waitingTime="29.10" waitingCount="1" stopTime="0.00" timeLoss="48.68" rerouteNo="0" devices="tripinfo_flow1.3" vType="vtypeauto" speedFactor="1.15" vaporized=""/>
    <tripinfo id="flow6.6" depart="33.50" departLane="D4D3_0" departPos="4.10" departSpeed="0.00" departDelay="15.50" arrival="81.60" arrivalLane="D1D0_1" arrivalPos="79.20" arrivalSpeed="12.57" duration="48.10" routeLength="375.10" waitingTime="4.10" waitingCount="1" stopTime="0.00" timeLoss="18.32" rerouteNo="0" devices="tripinfo_flow6.6" vType="vtypeauto" speedFactor="0.91" vaporized=""/>
    <tripinfo id="flow1.2" depart="6.00" departLane="A3B3_0" departPos="4.10" departSpeed="0.00" departDelay="0.00" arrival="81.70" arrivalLane="D3E3_0" arrivalPos="79.20" arrivalSpeed="13.60" duration="75.70" routeLength="375.10" waitingTime="29.00" waitingCount="1" stopTime="0.00" timeLoss="48.93" rerouteNo="0" devices="tripinfo_flow1.2" vType="vtypeauto@flow1.2" speedFactor="1.01" vaporized=""/>
    <tripinfo id="flow1.5" depart="15.00" departLane="A3B3_0" departPos="4.10" departSpeed="0.00" departDelay="0.00" arrival="82.50" arrivalLane="D3E3_1" arrivalPos="79.20" arrivalSpeed="16.11" duration="67.50" routeLength="375.10" waitingTime="27.30" waitingCount="1" stopTime="0.00" timeLoss="44.34" rerouteNo="0" devices="tripinfo_flow1.5" vType="vtypeauto" speedFactor="1.17" vaporized=""/>
    <tripinfo id="flow4.0" depart="1.30" departLane="C0C1_0" departPos="4.10" departSpeed="0.00" departDelay="1.30" arrival="82.70" arrivalLane="C3C4_0" arrivalPos="79.20" arrivalSpeed="14.31" duration="81.40" routeLength="375.10" waitingTime="42.40" waitingCount="2" stopTime="0.00" timeLoss="55.12" rerouteNo="0" devices="tripinfo_flow4.0" vType="vtypeauto" speedFactor="1.03" vaporized=""/>
    <tripinfo id="flow4.1" depart="4.10" departLane="C0C1_0" departPos="4.10" departSpeed="0.00" departDelay="1.10" arrival="82.90" arrivalLane="C3C4_0" arrivalPos="79.20" arrivalSpeed="13.66" duration="78.80" routeLength="375.10" waitingTime="35.90" waitingCount="1" stopTime="0.00" timeLoss="51.49" rerouteNo="0" devices="tripinfo_flow4.1" vType="vtypeauto" speedFactor="0.99" vaporized=""/>
    <tripinfo id="flow1.4" depart="12.00" departLane="A3B3_0" departPos="4.10" departSpeed="0.00" departDelay="0.00" arrival="82.90" arrivalLane="D3E3_0" arrivalPos="79.20" arrivalSpeed="13.97" duration="70.90" routeLength="375.10" waitingTime="26.80" waitingCount="1" stopTime="0.00" timeLoss="43.05" rerouteNo="0" devices="tripinfo_flow1.4" vType="vtypeauto@flow1.4" speedFactor="1.01" vaporized=""/>
    <tripinfo id="flow6.7" depart="39.10" departLane="D4D3_0" departPos="4.10" departSpeed="0.00" departDelay="18.10" arrival="83.10" arrivalLane="D1D0_1" arrivalPos="79.20" arrivalSpeed="14.32" duration="44.00" routeLength="375.10" waitingTime="0.00" waitingCount="0" stopTime="0.00" timeLoss="17.84" rerouteNo="0" devices="tripinfo_flow6.7" vType="vtypeauto" speedFactor="1.03" vaporized=""/>
    <tripinfo id="flow1.6" depart="18.00" departLane="A3B3_0" departPos="4.10" departSpeed="0.00" departDelay="0.00" arrival="84.00" arrivalLane="D3E3_0" arrivalPos="79.20" arrivalSpeed="13.92" duration="66.00" routeLength="375.10" waitingTime="24.90" waitingCount="1" stopTime="0.00" timeLoss="40.90" rerouteNo="0" devices="tripinfo_flow1.6" vType="vtypeauto@flow1.6" speedFactor="1.01" vaporized=""/>
    <tripinfo id="flow1.7" depart="21.00" departLane="A3B3_0" departPos="4.10" departSpeed="0.00" departDelay="0.00" arrival="84.30" arrivalLane="D3E3_1" arrivalPos="79.20" arrivalSpeed="13.48" duration="63.30" routeLength="375.10" waitingTime="22.20" waitingCount="1" stopTime="0.00" timeLoss="35.52" rerouteNo="0" devices="tripinfo_flow1.7" vType="vtypeauto" speedFactor="0.97" vaporized=""/>
    <tripinfo id="flow4.3" depart="9.90" departLane="C0C1_0" departPos="4.10" departSpeed="0.00" departDelay="0.90" arrival="84.50" arrivalLane="C3C4_1" arrivalPos="79.20" arrivalSpeed="13.75" duration="74.60" routeLength="375.10" waitingTime="30.10" waitingCount="1" stopTime="0.00" timeLoss="47.37" rerouteNo="0" devices="tripinfo_flow4.3" vType="vtypeauto" speedFactor="0.99" vaporized=""/>
    <tripinfo id="flow6.8" depart="44.60" departLane="D4D3_0" departPos="4.10" departSpeed="0.00" departDelay="20.60" arrival="84.70" arrivalLane="D1D0_1" arrivalPos="79.20" arrivalSpeed="13.82" duration="40.10" routeLength="375.10" waitingTime="0.00" waitingCount="0" stopTime="0.00" timeLoss="13.07" rerouteNo="0" devices="tripinfo_flow6.8" vType="vtypeauto" speedFactor="1.00" vaporized=""/>
    <tripinfo id="flow1.8" depart="24.00" departLane="A3B3_0" departPos="4.10" departSpeed="0.00" departDelay="0.00" arrival="85.10" arrivalLane="D3E3_0" arrivalPos="79.20" arrivalSpeed="13.95" duration="61.10" routeLength="375.10" waitingTime="19.80" waitingCount="1" stopTime="0.00" timeLoss="34.06" rerouteNo="0" devices="tripinfo_flow1.8" vType="vtypeauto@flow1.8" speedFactor="1.01" vaporized=""/>
    <tripinfo id="flow1.10" depart="30.00" departLane="A3B3_0" departPos="4.10" departSpeed="0.00" departDelay="0.00" arrival="85.90" arrivalLane="D3E3_1" arrivalPos="79.20" arrivalSpeed="13.28" duration="55.90" routeLength="375.10" waitingTime="10.00" waitingCount="2" stopTime="0.00" timeLoss="27.65" rerouteNo="0" devices="tripinfo_flow1.10" vType="vtypeauto" speedFactor="0.96" vaporized=""/>
    <tripinfo id="flow4.5" depart="15.70" departLane="C0C1_0" departPos="4.10" departSpeed="0.00" departDelay="0.70" arrival="86.00" arrivalLane="C3C4_1" arrivalPos="79.20" arrivalSpeed="13.88" duration="70.30" routeLength="375.10" waitingTime="27.70" waitingCount="1" stopTime="0.00" timeLoss="43.38" rerouteNo="0" devices="tripinfo_flow4.5" vType="vtypeauto" speedFactor="1.00" vaporized=""/>
    <tripinfo id="flow1.9" depart="27.00" departLane="A3B3_0" departPos="4.10" departSpeed="0.00" departDelay="0.00" arrival="86.20" arrivalLane="D3E3_0" arrivalPos="79.20" arrivalSpeed="13.96" duration="59.20" routeLength="375.10" waitingTime="11.80" waitingCount="2" stopTime="0.00" timeLoss="30.19" rerouteNo="0" devices="tripinfo_flow1.9" vType="vtypeauto@flow1.9" speedFactor="1.01" vaporized=""/>
    <tripinfo id="flow6.9" depart="50.20" departLane="D4D3_0" departPos="4.10" departSpeed="0.00" departDelay="23.20" arrival="86.20" arrivalLane="D1D0_1" arrivalPos="79.20" arrivalSpeed="13.94" duration="36.00" routeLength="375.10" waitingTime="0.00" waitingCount="0" stopTime="0.00" timeLoss="9.23" rerouteNo="0" devices="tripinfo_flow6.9" vType="vtypeauto" speedFactor="1.01" vaporized=""/>
    <tripinfo id="flow4.2" depart="7.00" departLane="C0C1_0" departPos="4.10" departSpeed="0.00" departDelay="1.00" arrival="86.90" arrivalLane="C3C4_0" arrivalPos="79.20" arrivalSpeed="11.47" duration="79.90" routeLength="375.10" waitingTime="31.10" waitingCount="1" stopTime="0.00" timeLoss="47.19" rerouteNo="0" devices="tripinfo_flow4.2" vType="vtypeauto" speedFactor="0.83" vaporized=""/>
    <tripinfo id="flow1.11" depart="33.00" departLane="A3B3_0" departPos="4.10" departSpeed="0.00" departDelay="0.00" arrival="87.30" arrivalLane="D3E3_0" arrivalPos="79.20" arrivalSpeed="14.00" duration="54.30" routeLength="375.10" waitingTime="1.90" waitingCount="1" stopTime="0.00" timeLoss="24.86" rerouteNo="0" devices="tripinfo_flow1.11" vType="vtypeauto@flow1.11" speedFactor="1.01" vaporized=""/>
    <tripinfo id="flow1.12" depart="36.00" departLane="A3B3_0" departPos="4.10" departSpeed="0.00" departDelay="0.00" arrival="87.40" arrivalLane="D3E3_1" arrivalPos="79.20" arrivalSpeed="15.21" duration="51.40" routeLength="375.10" waitingTime="3.40" waitingCount="1" stopTime="0.00" timeLoss="26.86" rerouteNo="0" devices="tripinfo_flow1.12" vType="vtypeauto" speedFactor="1.10" vaporized=""/>
    <tripinfo id="flow9.11" depart="33.00" departLane="A2B2_0" departPos="4.10" departSpeed="0.00" departDelay="0.00" arrival="87.50" arrivalLane="D2E2_0" arrivalPos="79.20" arrivalSpeed="14.87" duration="54.50" routeLength="375.10" waitingTime="20.20" waitingCount="1" stopTime="0.00" timeLoss="29.20" rerouteNo="0" devices="tripinfo_flow9.11" vType="vtypeauto" speedFactor="1.07" vaporized=""/>
    <tripinfo id="flow6.10" depart="55.80" departLane="D4D3_0" departPos="4.10" departSpeed="0.00" departDelay="25.80" arrival="87.80" arrivalLane="D1D0_1" arrivalPos="79.20" arrivalSpeed="14.04" duration="32.00" routeLength="375.10" waitingTime="0.00" waitingCount="0" stopTime="0.00" timeLoss="5.28" rerouteNo="0" devices="tripinfo_flow6.10" vType="vtypeauto" speedFactor="1.01" vaporized=""/>
    <tripinfo id="flow4.4" depart="12.80" departLane="C0C1_0" departPos="4.10" departSpeed="0.00" departDelay="0.80" arrival="88.40" arrivalLane="C3C4_0" arrivalPos="79.20" arrivalSpeed="14.34" duration="75.60" routeLength="375.10" waitingTime="29.10" waitingCount="1" stopTime="0.00" timeLoss="49.72" rerouteNo="0" devices="tripinfo_flow4.4" vType="vtypeauto" speedFactor="1.04" vaporized=""/>
    <tripinfo id="flow1.13" depart="39.00" departLane="A3B3_0" departPos="4.10" departSpeed="0.00" departDelay="0.00" arrival="88.70" arrivalLane="D3E3_0" arrivalPos="79.20" arrivalSpeed="14.78" duration="49.70" routeLength="375.10" waitingTime="0.20" waitingCount="1" stopTime="0.00" timeLoss="24.42" rerouteNo="0" devices="tripinfo_flow1.13" vType="vtypeauto" speedFactor="1.07" vaporized=""/>
    <tripinfo id="flow1.14" depart="42.00" departLane="A3B3_0" departPos="4.10" departSpeed="0.00" departDelay="0.00" arrival="88.80" arrivalLane="D3E3_1" arrivalPos="79.20" arrivalSpeed="16.09" duration="46.80" routeLength="375.10" waitingTime="2.00" waitingCount="1" stopTime="0.00" timeLoss="23.52" rerouteNo="0" devices="tripinfo_flow1.14" vType="vtypeauto" speedFactor="1.16" vaporized=""/>
    <tripinfo id="flow9.12" depart="36.00" departLane="A2B2_0" departPos="4.10" departSpeed="0.00" departDelay="0.00" arrival="89.10" arrivalLane="D2E2_0" arrivalPos="79.20" arrivalSpeed="13.91" duration="53.10" routeLength="375.10" waitingTime="14.30" waitingCount="1" stopTime="0.00" timeLoss="26.25" rerouteNo="0" devices="tripinfo_flow9.12" vType="vtypeauto" speedFactor="1.01" vaporized=""/>
    <tripinfo id="flow9.10" depart="30.00" departLane="A2B2_0" departPos="4.10" departSpeed="0.00" departDelay="0.00" arrival="89.60" arrivalLane="D2E2_0" arrivalPos="79.20" arrivalSpeed="2.82" duration="59.60" routeLength="375.10" waitingTime="22.20" waitingCount="1" stopTime="0.00" timeLoss="31.45" rerouteNo="0" devices="tripinfo_flow9.10" vType="vtypeauto" speedFactor="0.96" vaporized=""/>
    <tripinfo id="flow1.16" depart="48.00" departLane="A3B3_0" departPos="4.10" departSpeed="0.00" departDelay="0.00" arrival="90.10" arrivalLane="D3E3_0" arrivalPos="79.20" arrivalSpeed="14.88" duration="42.10" routeLength="375.10" waitingTime="0.00" waitingCount="0" stopTime="0.00" timeLoss="17.03" rerouteNo="0" devices="tripinfo_flow1.16" vType="vtypeauto" speedFactor="1.08" vaporized=""/>
    <tripinfo id="flow1.15" depart="45.00" departLane="A3B3_0" departPos="4.10" departSpeed="0.00" departDelay="0.00" arrival="90.50" arrivalLane="D3E3_1" arrivalPos="79.20" arrivalSpeed="13.87" duration="45.50" routeLength="375.10" waitingTime="0.00" waitingCount="0" stopTime="0.00" timeLoss="18.53" rerouteNo="0" devices="tripinfo_flow1.15" vType="vtypeauto" speedFactor="1.00" vaporized=""/>
    <tripinfo id="flow9.13" depart="39.00" departLane="A2B2_0" departPos="4.10" departSpeed="0.00" departDelay="0.00" arrival="92.90" arrivalLane="D2E2_1" arrivalPos="79.20" arrivalSpeed="0.94" duration="53.90" routeLength="375.10" waitingTime="9.80" waitingCount="1" stopTime="0.00" timeLoss="25.58" rerouteNo="0" devices="tripinfo_flow9.13" vType="vtypeauto" speedFactor="0.95" vaporized=""/>
    <tripinfo id="flow9.14" depart="42.00" departLane="A2B2_0" departPos="4.10" departSpeed="0.00" departDelay="0.00" arrival="103.60" arrivalLane="D2E2_0" arrivalPos="79.20" arrivalSpeed="14.35" duration="61.60" routeLength="375.10" waitingTime="19.30" waitingCount="2" stopTime="0.00" timeLoss="35.62" rerouteNo="0" devices="tripinfo_flow9.14" vType="vtypeauto" speedFactor="1.04" vaporized=""/>
    <tripinfo id="flow9.15" depart="45.00" departLane="A2B2_0" departPos="4.10" departSpeed="0.00" departDelay="0.00" arrival="104.00" arrivalLane="D2E2_1" arrivalPos="79.20" arrivalSpeed="7.87" duration="59.00" routeLength="375.10" waitingTime="16.60" waitingCount="2" stopTime="0.00" timeLoss="35.34" rerouteNo="0" devices="tripinfo_flow9.15" vType="vtypeauto" speedFactor="1.14" vaporized=""/>
    <tripinfo id="flow2.1" depart="3.00" departLane="A0A1_0" departPos="4.10" departSpeed="0.00" departDelay="0.00" arrival="105.80" arrivalLane="C3D3_0" arrivalPos="79.20" arrivalSpeed="13.96" duration="102.80" routeLength="540.89" waitingTime="27.90" waitingCount="2" stopTime="0.00" timeLoss="61.96" rerouteNo="0" devices="tripinfo_flow2.1" vType="vtypeauto@flow2.1" speedFactor="1.01" vaporized=""/>
    <tripinfo id="flow9.16" depart="48.00" departLane="A2B2_0" departPos="4.10" departSpeed="0.00" departDelay="0.00" arrival="105.90" arrivalLane="D2E2_0" arrivalPos="79.20" arrivalSpeed="13.05" duration="57.90" routeLength="375.10" waitingTime="21.50" waitingCount="1" stopTime="0.00" timeLoss="29.09" rerouteNo="0" devices="tripinfo_flow9.16" vType="vtypeauto" speedFactor="0.94" vaporized=""/>
    <tripinfo id="flow2.2" depart="6.00" departLane="A0A1_0" departPos="4.10" departSpeed="0.00" departDelay="0.00" arrival="107.60" arrivalLane="C3D3_0" arrivalPos="79.20" arrivalSpeed="13.99" duration="101.60" routeLength="540.89" waitingTime="22.30" waitingCount="2" stopTime="0.00" timeLoss="59.44" rerouteNo="0" devices="tripinfo_flow2.2" vType="vtypeauto@flow2.2" speedFactor="1.01" vaporized=""/>
    <tripinfo id="flow2.3" depart="9.00" departLane="A0A1_0" departPos="4.10" departSpeed="0.00" departDelay="0.00" arrival="109.40" arrivalLane="C3D3_0" arrivalPos="79.20" arrivalSpeed="13.98" duration="100.40" routeLength="540.89" waitingTime="17.20" waitingCount="2" stopTime="0.00" timeLoss="58.84" rerouteNo="0" devices="tripinfo_flow2.3" vType="vtypeauto@flow2.3" speedFactor="1.01" vaporized=""/>
    <tripinfo id="flow2.4" depart="12.00" departLane="A0A1_0" departPos="4.10" departSpeed="0.00" departDelay="0.00" arrival="111.20" arrivalLane="C3D3_0" arrivalPos="79.20" arrivalSpeed="13.88" duration="99.20" routeLength="540.89" waitingTime="14.40" waitingCount="2" stopTime="0.00" timeLoss="58.94" rerouteNo="0" devices="tripinfo_flow2.4" vType="vtypeauto@flow2.4" speedFactor="1.01" vaporized=""/>
    <tripinfo id="flow2.5" depart="15.00" departLane="A0A1_0" departPos="4.10" departSpeed="0.00" departDelay="0.00" arrival="112.90" arrivalLane="C3D3_0" arrivalPos="79.20" arrivalSpeed="13.95" duration="97.90" routeLength="540.89" waitingTime="11.70" waitingCount="2" stopTime="0.00" timeLoss="56.41" rerouteNo="0" devices="tripinfo_flow2.5" vType="vtypeauto@flow2.5" speedFactor="1.01" vaporized=""/>
    <tripinfo id="flow2.0" depart="0.00" departLane="A0A1_0" departPos="4.10" departSpeed="0.00" departDelay="0.00" arrival="115.40" arrivalLane="C3D3_0" arrivalPos="79.20" arrivalSpeed="13.91" duration="115.40" routeLength="540.89" waitingTime="38.60" waitingCount="4" stopTime="0.00" timeLoss="73.30" rerouteNo="0" devices="tripinfo_flow2.0" vType="vtypeauto" speedFactor="1.01" vaporized=""/>
    <tripinfo id="flow8.1" depart="8.40" departLane="D4D3_0" departPos="4.10" departSpeed="0.00" departDelay="5.40" arrival="117.50" arrivalLane="B1A1_0" arrivalPos="79.20" arrivalSpeed="13.88" duration="109.10" routeLength="563.33" waitingTime="36.10" waitingCount="2" stopTime="0.00" timeLoss="67.20" rerouteNo="0" devices="tripinfo_flow8.1" vType="vtypeauto@flow8.1" speedFactor="1.01" vaporized=""/>
    <tripinfo id="flow2.6" depart="18.00" departLane="A0A1_0" departPos="4.10" departSpeed="0.00" departDelay="0.00" arrival="118.10" arrivalLane="C3D3_0" arrivalPos="79.20" arrivalSpeed="14.10" duration="100.10" routeLength="540.89" waitingTime="11.00" waitingCount="8" stopTime="0.00" timeLoss="58.23" rerouteNo="0" devices="tripinfo_flow2.6" vType="vtypeauto" speedFactor="1.02" vaporized=""/>
    <tripinfo id="flow0.0" depart="0.00" departLane="B4B3_0" departPos="4.10" departSpeed="0.00" departDelay="0.00" arrival="118.60" arrivalLane="B3A3_1" arrivalPos="79.20" arrivalSpeed="14.67" duration="118.60" routeLength="570.75" waitingTime="51.90" waitingCount="2" stopTime="0.00" timeLoss="77.87" rerouteNo="0" devices="tripinfo_flow0.0" vType="vtypeauto" speedFactor="1.06" vaporized=""/>
    <tripinfo id="flow8.3" depart="19.60" departLane="D4D3_0" departPos="4.10" departSpeed="0.00" departDelay="10.60" arrival="118.70" arrivalLane="B1A1_0" arrivalPos="79.20" arrivalSpeed="13.88" duration="99.10" routeLength="563.33" waitingTime="29.20" waitingCount="2" stopTime="0.00" timeLoss="59.00" rerouteNo="0" devices="tripinfo_flow8.3" vType="vtypeauto@flow8.3" speedFactor="1.01" vaporized=""/>
    <tripinfo id="flow8.0" depart="2.80" departLane="D4D3_0" departPos="4.10" departSpeed="0.00" departDelay="2.80" arrival="119.80" arrivalLane="B1A1_1" arrivalPos="79.20" arrivalSpeed="13.94" duration="117.00" routeLength="563.33" waitingTime="43.80" waitingCount="4" stopTime="0.00" timeLoss="75.13" rerouteNo="0" devices="tripinfo_flow8.0" vType="vtypeauto@flow8.0" speedFactor="1.01" vaporized=""/>
    <tripinfo id="flow8.5" depart="30.80" departLane="D4D3_0" departPos="4.10" departSpeed="0.00" departDelay="15.80" arrival="120.00" arrivalLane="B1A1_0" arrivalPos="79.20" arrivalSpeed="13.91" duration="89.20" routeLength="563.33" waitingTime="17.20" waitingCount="2" stopTime="0.00" timeLoss="48.32" rerouteNo="0" devices="tripinfo_flow8.5" vType="vtypeauto@flow8.5" speedFactor="1.01" vaporized=""/>
    <tripinfo id="flow8.2" depart="14.00" departLane="D4D3_0" departPos="4.10" departSpeed="0.00" departDelay="8.00" arrival="121.00" arrivalLane="B1A1_1" arrivalPos="79.20" arrivalSpeed="13.90" duration="107.00" routeLength="563.33" waitingTime="32.30" waitingCount="2" stopTime="0.00" timeLoss="67.17" rerouteNo="0" devices="tripinfo_flow8.2" vType="vtypeauto@flow8.2" speedFactor="1.01" vaporized=""/>
    <tripinfo id="flow8.7" depart="41.90" departLane="D4D3_0" departPos="4.10" departSpeed="0.00" departDelay="20.90" arrival="121.60" arrivalLane="B1A1_0" arrivalPos="79.20" arrivalSpeed="13.88" duration="79.70" routeLength="563.33" waitingTime="8.20" waitingCount="1" stopTime="0.00" timeLoss="38.67" rerouteNo="0" devices="tripinfo_flow8.7" vType="vtypeauto" speedFactor="1.01" vaporized=""/>
    <tripinfo id="flow8.4" depart="25.20" departLane="D4D3_0" departPos="4.10" departSpeed="0.00" departDelay="13.20" arrival="122.20" arrivalLane="B1A1_1" arrivalPos="79.20" arrivalSpeed="13.92" duration="97.00" routeLength="563.33" waitingTime="22.10" waitingCount="2" stopTime="0.00" timeLoss="54.60" rerouteNo="0" devices="tripinfo_flow8.4" vType="vtypeauto@flow8.4" speedFactor="1.01" vaporized=""/>
    <tripinfo id="flow2.7" depart="21.00" departLane="A0A1_0" departPos="4.10" departSpeed="0.00" departDelay="0.00" arrival="122.40" arrivalLane="C3D3_0" arrivalPos="79.20" arrivalSpeed="12.99" duration="101.40" routeLength="540.89" waitingTime="11.50" waitingCount="12" stopTime="0.00" timeLoss="56.14" rerouteNo="0" devices="tripinfo_flow2.7" vType="vtypeauto" speedFactor="0.94" vaporized=""/>
    <tripinfo id="flow0.9" depart="27.00" departLane="B4B3_0" departPos="4.10" departSpeed="0.00" departDelay="0.00" arrival="122.90" arrivalLane="B3A3_1" arrivalPos="79.20" arrivalSpeed="14.12" duration="95.90" routeLength="570.75" waitingTime="24.70" waitingCount="2" stopTime="0.00" timeLoss="53.41" rerouteNo="0" devices="tripinfo_flow0.9" vType="vtypeauto" speedFactor="1.02" vaporized=""/>
    <tripinfo id="flow8.9" depart="53.00" departLane="D4D3_0" departPos="4.10" departSpeed="0.00" departDelay="26.00" arrival="123.00" arrivalLane="B1A1_0" arrivalPos="79.20" arrivalSpeed="15.54" duration="70.00" routeLength="563.33" waitingTime="5.30" waitingCount="1" stopTime="0.00" timeLoss="33.17" rerouteNo="0" devices="tripinfo_flow8.9" vType="vtypeauto" speedFactor="1.12" vaporized=""/>
    <tripinfo id="flow8.6" depart="36.30" departLane="D4D3_0" departPos="4.10" departSpeed="0.00" departDelay="18.30" arrival="124.00" arrivalLane="B1A1_1" arrivalPos="79.20" arrivalSpeed="6.29" duration="87.70" routeLength="563.33" waitingTime="10.40" waitingCount="2" stopTime="0.00" timeLoss="46.99" rerouteNo="0" devices="tripinfo_flow8.6" vType="vtypeauto@flow8.6" speedFactor="1.01" vaporized=""/>
    <tripinfo id="flow2.8" depart="24.00" departLane="A0A1_0" departPos="4.10" departSpeed="0.00" departDelay="0.00" arrival="125.40" arrivalLane="C3D3_0" arrivalPos="79.20" arrivalSpeed="14.07" duration="101.40" routeLength="540.89" waitingTime="13.20" waitingCount="3" stopTime="0.00" timeLoss="59.48" rerouteNo="0" devices="tripinfo_flow2.8" vType="vtypeauto" speedFactor="1.02" vaporized=""/>
    <tripinfo id="flow0.10" depart="30.00" departLane="B4B3_0" departPos="4.10" departSpeed="0.00" departDelay="0.00" arrival="125.70" arrivalLane="B3A3_1" arrivalPos="79.20" arrivalSpeed="14.77" duration="95.70" routeLength="570.75" waitingTime="18.40" waitingCount="2" stopTime="0.00" timeLoss="55.11" rerouteNo="0" devices="tripinfo_flow0.10" vType="vtypeauto" speedFactor="1.06" vaporized=""/>
    <tripinfo id="flow8.8" depart="47.40" departLane="D4D3_0" departPos="4.10" departSpeed="0.00" departDelay="23.40" arrival="127.00" arrivalLane="B1A1_1" arrivalPos="79.20" arrivalSpeed="2.27" duration="79.60" routeLength="563.33" waitingTime="5.90" waitingCount="1" stopTime="0.00" timeLoss="38.64" rerouteNo="0" devices="tripinfo_flow8.8" vType="vtypeauto" speedFactor="1.01" vaporized=""/>