<?xml version="1.0" encoding="UTF-8"?>

<!-- generated on 2024-10-25 17:18:18 by Eclipse SUMO GUI Version 1.20.0
<configuration xmlns:xsi="http://www.w3.org/2001/XMLSchema-instance" xsi:noNamespaceSchemaLocation="http://sumo.dlr.de/xsd/sumoConfiguration.xsd">

    <input>
        <net-file value="sim_cfg_grid_2_lanes/grid.net.xml"/>
        <route-files value="sim_cfg_grid_2_lanes/grid.rou.xml"/>
    </input>

    <output>
        <tripinfo-output value="sim_cfg_grid_2_lanes/tripinfo.xml"/>
    </output>

    <time>
        <begin value="0"/>
        <end value="500"/>
        <step-length value="0.1"/>
    </time>

    <traci_server>
        <remote-port value="49899"/>
    </traci_server>

    <gui_only>
        <gui-settings-file value="sim_cfg_grid_2_lanes/gui_settings.xml"/>
    </gui_only>

</configuration>
-->

<tripinfos xmlns:xsi="http://www.w3.org/2001/XMLSchema-instance" xsi:noNamespaceSchemaLocation="http://sumo.dlr.de/xsd/tripinfo_file.xsd">
    <tripinfo id="flow4.0" depart="1.30" departLane="C0C1_0" departPos="4.10" departSpeed="0.00" departDelay="1.30" arrival="49.70" arrivalLane="C3C4_0" arrivalPos="79.20" arrivalSpeed="14.22" duration="48.40" routeLength="375.10" waitingTime="9.30" waitingCount="2" stopTime="0.00" timeLoss="22.11" rerouteNo="0" devices="tripinfo_flow4.0" vType="vtypeauto" speedFactor="1.03" vaporized=""/>
    <tripinfo id="flow4.1" depart="4.20" departLane="C0C1_0" departPos="4.10" departSpeed="0.00" departDelay="3.20" arrival="49.70" arrivalLane="C3C4_1" arrivalPos="79.20" arrivalSpeed="14.25" duration="45.50" routeLength="375.10" waitingTime="3.00" waitingCount="1" stopTime="0.00" timeLoss="19.11" rerouteNo="0" devices="tripinfo_flow4.1" vType="vtypeauto" speedFactor="1.03" vaporized=""/>
    <tripinfo id="flow4.4" depart="13.30" departLane="C0C1_0" departPos="4.10" departSpeed="0.00" departDelay="9.30" arrival="51.40" arrivalLane="C3C4_1" arrivalPos="79.20" arrivalSpeed="13.89" duration="38.10" routeLength="375.10" waitingTime="0.00" waitingCount="0" stopTime="0.00" timeLoss="11.15" rerouteNo="0" devices="tripinfo_flow4.4" vType="vtypeauto" speedFactor="1.01" vaporized=""/>
    <tripinfo id="flow4.2" depart="7.10" departLane="C0C1_0" departPos="4.10" departSpeed="0.00" departDelay="5.10" arrival="52.20" arrivalLane="C3C4_0" arrivalPos="79.20" arrivalSpeed="12.95" duration="45.10" routeLength="375.10" waitingTime="0.00" waitingCount="0" stopTime="0.00" timeLoss="16.23" rerouteNo="0" devices="tripinfo_flow4.2" vType="vtypeauto" speedFactor="0.94" vaporized=""/>
    <tripinfo id="flow4.6" depart="19.00" departLane="C0C1_0" departPos="4.10" departSpeed="0.00" departDelay="13.00" arrival="53.00" arrivalLane="C3C4_1" arrivalPos="79.20" arrivalSpeed="13.81" duration="34.00" routeLength="375.10" waitingTime="0.00" waitingCount="0" stopTime="0.00" timeLoss="6.86" rerouteNo="0" devices="tripinfo_flow4.6" vType="vtypeauto" speedFactor="1.00" vaporized=""/>
    <tripinfo id="flow4.7" depart="21.90" departLane="C0C1_0" departPos="4.10" departSpeed="0.00" departDelay="14.90" arrival="54.50" arrivalLane="C3C4_1" arrivalPos="79.20" arrivalSpeed="15.13" duration="32.60" routeLength="375.10" waitingTime="0.00" waitingCount="0" stopTime="0.00" timeLoss="7.87" rerouteNo="0" devices="tripinfo_flow4.7" vType="vtypeauto" speedFactor="1.10" vaporized=""/>
    <tripinfo id="flow4.3" depart="10.00" departLane="C0C1_0" departPos="4.10" departSpeed="0.00" departDelay="7.00" arrival="54.70" arrivalLane="C3C4_0" arrivalPos="79.20" arrivalSpeed="12.02" duration="44.70" routeLength="375.10" waitingTime="0.00" waitingCount="0" stopTime="0.00" timeLoss="13.68" rerouteNo="0" devices="tripinfo_flow4.3" vType="vtypeauto" speedFactor="0.87" vaporized=""/>
    <tripinfo id="flow4.5" depart="16.20" departLane="C0C1_0" departPos="4.10" departSpeed="0.00" departDelay="11.20" arrival="56.30" arrivalLane="C3C4_0" arrivalPos="79.20" arrivalSpeed="12.46" duration="40.10" routeLength="375.10" waitingTime="0.00" waitingCount="0" stopTime="0.00" timeLoss="10.07" rerouteNo="0" devices="tripinfo_flow4.5" vType="vtypeauto" speedFactor="0.90" vaporized=""/>
    <tripinfo id="flow4.8" depart="24.80" departLane="C0C1_0" departPos="4.10" departSpeed="0.00" departDelay="16.80" arrival="57.80" arrivalLane="C3C4_0" arrivalPos="79.20" arrivalSpeed="14.95" duration="33.00" routeLength="375.10" waitingTime="0.00" waitingCount="0" stopTime="0.00" timeLoss="7.98" rerouteNo="0" devices="tripinfo_flow4.8" vType="vtypeauto" speedFactor="1.08" vaporized=""/>
    <tripinfo id="flow1.1" depart="2.70" departLane="A3B3_0" departPos="4.10" departSpeed="0.00" departDelay="1.70" arrival="79.90" arrivalLane="D3E3_1" arrivalPos="79.20" arrivalSpeed="12.95" duration="77.20" routeLength="375.10" waitingTime="36.50" waitingCount="2" stopTime="0.00" timeLoss="48.34" rerouteNo="0" devices="tripinfo_flow1.1" vType="vtypeauto" speedFactor="0.94" vaporized=""/>
    <tripinfo id="flow1.0" depart="0.00" departLane="A3B3_0" departPos="4.10" departSpeed="0.00" departDelay="0.00" arrival="80.20" arrivalLane="D3E3_0" arrivalPos="79.20" arrivalSpeed="12.98" duration="80.20" routeLength="375.10" waitingTime="39.70" waitingCount="2" stopTime="0.00" timeLoss="51.41" rerouteNo="0" devices="tripinfo_flow1.0" vType="vtypeauto" speedFactor="0.94" vaporized=""/>
    <tripinfo id="flow1.3" depart="8.20" departLane="A3B3_0" departPos="4.10" departSpeed="0.00" departDelay="5.20" arrival="81.40" arrivalLane="D3E3_1" arrivalPos="79.20" arrivalSpeed="13.54" duration="73.20" routeLength="375.10" waitingTime="29.00" waitingCount="1" stopTime="0.00" timeLoss="45.47" rerouteNo="0" devices="tripinfo_flow1.3" vType="vtypeauto" speedFactor="0.97" vaporized=""/>
    <tripinfo id="flow1.2" depart="5.40" departLane="A3B3_0" departPos="4.10" departSpeed="0.00" departDelay="3.40" arrival="81.70" arrivalLane="D3E3_0" arrivalPos="79.20" arrivalSpeed="13.92" duration="76.30" routeLength="375.10" waitingTime="29.00" waitingCount="1" stopTime="0.00" timeLoss="47.78" rerouteNo="0" devices="tripinfo_flow1.2" vType="vtypeauto@flow1.2" speedFactor="1.01" vaporized=""/>
    <tripinfo id="flow1.4" depart="11.00" departLane="A3B3_0" departPos="4.10" departSpeed="0.00" departDelay="7.00" arrival="82.80" arrivalLane="D3E3_0" arrivalPos="79.20" arrivalSpeed="13.93" duration="71.80" routeLength="375.10" waitingTime="26.90" waitingCount="1" stopTime="0.00" timeLoss="43.46" rerouteNo="0" devices="tripinfo_flow1.4" vType="vtypeauto@flow1.4" speedFactor="1.01" vaporized=""/>
    <tripinfo id="flow1.5" depart="13.80" departLane="A3B3_0" departPos="4.10" departSpeed="0.00" departDelay="8.80" arrival="83.00" arrivalLane="D3E3_1" arrivalPos="79.20" arrivalSpeed="13.40" duration="69.20" routeLength="375.10" waitingTime="27.20" waitingCount="1" stopTime="0.00" timeLoss="41.36" rerouteNo="0" devices="tripinfo_flow1.5" vType="vtypeauto" speedFactor="0.97" vaporized=""/>
    <tripinfo id="flow1.6" depart="16.60" departLane="A3B3_0" departPos="4.10" departSpeed="0.00" departDelay="10.60" arrival="83.90" arrivalLane="D3E3_0" arrivalPos="79.20" arrivalSpeed="14.00" duration="67.30" routeLength="375.10" waitingTime="25.00" waitingCount="1" stopTime="0.00" timeLoss="41.03" rerouteNo="0" devices="tripinfo_flow1.6" vType="vtypeauto@flow1.6" speedFactor="1.01" vaporized=""/>
    <tripinfo id="flow2.0" depart="0.00" departLane="A0A1_0" departPos="4.10" departSpeed="0.00" departDelay="0.00" arrival="84.40" arrivalLane="C3D3_0" arrivalPos="79.20" arrivalSpeed="11.11" duration="84.40" routeLength="540.89" waitingTime="18.70" waitingCount="3" stopTime="0.00" timeLoss="42.32" rerouteNo="0" devices="tripinfo_flow2.0" vType="vtypeauto" speedFactor="1.01" vaporized=""/>
    <tripinfo id="flow1.8" depart="22.20" departLane="A3B3_0" departPos="4.10" departSpeed="0.00" departDelay="14.20" arrival="84.40" arrivalLane="D3E3_1" arrivalPos="79.20" arrivalSpeed="15.80" duration="62.20" routeLength="375.10" waitingTime="17.00" waitingCount="2" stopTime="0.00" timeLoss="38.51" rerouteNo="0" devices="tripinfo_flow1.8" vType="vtypeauto" speedFactor="1.14" vaporized=""/>
    <tripinfo id="flow1.7" depart="19.40" departLane="A3B3_0" departPos="4.10" departSpeed="0.00" departDelay="12.40" arrival="85.10" arrivalLane="D3E3_0" arrivalPos="79.20" arrivalSpeed="13.97" duration="65.70" routeLength="375.10" waitingTime="18.50" waitingCount="2" stopTime="0.00" timeLoss="35.77" rerouteNo="0" devices="tripinfo_flow1.7" vType="vtypeauto@flow1.7" speedFactor="1.01" vaporized=""/>
    <tripinfo id="flow2.1" depart="2.80" departLane="A0A1_0" departPos="4.10" departSpeed="0.00" departDelay="1.80" arrival="85.50" arrivalLane="C3D3_0" arrivalPos="79.20" arrivalSpeed="12.30" duration="82.70" routeLength="540.89" waitingTime="6.70" waitingCount="1" stopTime="0.00" timeLoss="35.16" rerouteNo="0" devices="tripinfo_flow2.1" vType="vtypeauto@flow2.1" speedFactor="1.01" vaporized=""/>
    <tripinfo id="flow1.10" depart="27.80" departLane="A3B3_0" departPos="4.10" departSpeed="0.00" departDelay="17.80" arrival="86.00" arrivalLane="D3E3_1" arrivalPos="79.20" arrivalSpeed="13.42" duration="58.20" routeLength="375.10" waitingTime="6.90" waitingCount="1" stopTime="0.00" timeLoss="30.43" rerouteNo="0" devices="tripinfo_flow1.10" vType="vtypeauto" speedFactor="0.97" vaporized=""/>
    <tripinfo id="flow2.2" depart="5.60" departLane="A0A1_0" departPos="4.10" departSpeed="0.00" departDelay="3.60" arrival="86.70" arrivalLane="C3D3_0" arrivalPos="79.20" arrivalSpeed="13.34" duration="81.10" routeLength="540.89" waitingTime="4.40" waitingCount="1" stopTime="0.00" timeLoss="34.53" rerouteNo="0" devices="tripinfo_flow2.2" vType="vtypeauto@flow2.2" speedFactor="1.01" vaporized=""/>
    <tripinfo id="flow1.9" depart="25.00" departLane="A3B3_0" departPos="4.10" departSpeed="0.00" departDelay="16.00" arrival="86.70" arrivalLane="D3E3_0" arrivalPos="79.20" arrivalSpeed="12.97" duration="61.70" routeLength="375.10" waitingTime="9.70" waitingCount="1" stopTime="0.00" timeLoss="32.81" rerouteNo="0" devices="tripinfo_flow1.9" vType="vtypeauto" speedFactor="0.94" vaporized=""/>
    <tripinfo id="flow1.12" depart="33.30" departLane="A3B3_0" departPos="4.10" departSpeed="0.00" departDelay="21.30" arrival="87.60" arrivalLane="D3E3_1" arrivalPos="79.20" arrivalSpeed="13.52" duration="54.30" routeLength="375.10" waitingTime="2.40" waitingCount="1" stopTime="0.00" timeLoss="26.58" rerouteNo="0" devices="tripinfo_flow1.12" vType="vtypeauto" speedFactor="0.98" vaporized=""/>
    <tripinfo id="flow2.3" depart="8.40" departLane="A0A1_0" departPos="4.10" departSpeed="0.00" departDelay="5.40" arrival="87.80" arrivalLane="C3D3_0" arrivalPos="79.20" arrivalSpeed="13.91" duration="79.40" routeLength="540.89" waitingTime="1.10" waitingCount="1" stopTime="0.00" timeLoss="36.46" rerouteNo="0" devices="tripinfo_flow2.3" vType="vtypeauto@flow2.3" speedFactor="2.15" vaporized=""/>
    <tripinfo id="flow1.11" depart="30.60" departLane="A3B3_0" departPos="4.10" departSpeed="0.00" departDelay="19.60" arrival="88.20" arrivalLane="D3E3_0" arrivalPos="79.20" arrivalSpeed="13.88" duration="57.60" routeLength="375.10" waitingTime="5.50" waitingCount="1" stopTime="0.00" timeLoss="30.70" rerouteNo="0" devices="tripinfo_flow1.11" vType="vtypeauto" speedFactor="1.01" vaporized=""/>
    <tripinfo id="flow1.14" depart="38.80" departLane="A3B3_0" departPos="4.10" departSpeed="0.00" departDelay="24.80" arrival="89.00" arrivalLane="D3E3_1" arrivalPos="79.20" arrivalSpeed="15.15" duration="50.20" routeLength="375.10" waitingTime="0.00" waitingCount="0" stopTime="0.00" timeLoss="25.59" rerouteNo="0" devices="tripinfo_flow1.14" vType="vtypeauto" speedFactor="1.10" vaporized=""/>
    <tripinfo id="flow2.7" depart="19.50" departLane="A0A1_0" departPos="4.10" departSpeed="0.00" departDelay="12.50" arrival="89.20" arrivalLane="C3D3_0" arrivalPos="79.20" arrivalSpeed="15.23" duration="69.70" routeLength="540.89" waitingTime="0.90" waitingCount="2" stopTime="0.00" timeLoss="33.25" rerouteNo="0" devices="tripinfo_flow2.7" vType="vtypeauto" speedFactor="1.17" vaporized=""/>
    <tripinfo id="flow1.13" depart="36.10" departLane="A3B3_0" departPos="4.10" departSpeed="0.00" departDelay="23.10" arrival="90.20" arrivalLane="D3E3_0" arrivalPos="79.20" arrivalSpeed="11.56" duration="54.10" routeLength="375.10" waitingTime="0.00" waitingCount="0" stopTime="0.00" timeLoss="21.62" rerouteNo="0" devices="tripinfo_flow1.13" vType="vtypeauto" speedFactor="0.83" vaporized=""/>
    <tripinfo id="flow2.4" depart="11.10" departLane="A0A1_0" departPos="4.10" departSpeed="0.00" departDelay="7.10" arrival="90.50" arrivalLane="C3D3_0" arrivalPos="79.20" arrivalSpeed="16.28" duration="79.40" routeLength="540.89" waitingTime="0.00" waitingCount="0" stopTime="0.00" timeLoss="43.27" rerouteNo="0" devices="tripinfo_flow2.4" vType="vtypeauto" speedFactor="1.18" vaporized=""/>
    <tripinfo id="flow1.16" depart="44.40" departLane="A3B3_0" departPos="4.10" departSpeed="0.00" departDelay="28.40" arrival="90.60" arrivalLane="D3E3_1" arrivalPos="79.20" arrivalSpeed="13.92" duration="46.20" routeLength="375.10" waitingTime="0.00" waitingCount="0" stopTime="0.00" timeLoss="19.41" rerouteNo="0" devices="tripinfo_flow1.16" vType="vtypeauto" speedFactor="1.01" vaporized=""/>
    <tripinfo id="flow1.15" depart="41.60" departLane="A3B3_0" departPos="4.10" departSpeed="0.00" departDelay="26.60" arrival="91.70" arrivalLane="D3E3_0" arrivalPos="79.20" arrivalSpeed="14.04" duration="50.10" routeLength="375.10" waitingTime="0.00" waitingCount="0" stopTime="0.00" timeLoss="23.39" rerouteNo="0" devices="tripinfo_flow1.15" vType="vtypeauto" speedFactor="1.01" vaporized=""/>
    <tripinfo id="flow1.17" depart="47.20" departLane="A3B3_0" departPos="4.10" departSpeed="0.00" departDelay="30.20" arrival="92.40" arrivalLane="D3E3_1" arrivalPos="79.20" arrivalSpeed="13.04" duration="45.20" routeLength="375.10" waitingTime="0.00" waitingCount="0" stopTime="0.00" timeLoss="16.44" rerouteNo="0" devices="tripinfo_flow1.17" vType="vtypeauto" speedFactor="0.94" vaporized=""/>
    <tripinfo id="flow2.9" depart="25.10" departLane="A0A1_0" departPos="4.10" departSpeed="0.00" departDelay="16.10" arrival="92.70" arrivalLane="C3D3_0" arrivalPos="79.20" arrivalSpeed="12.24" duration="67.60" routeLength="540.89" waitingTime="0.40" waitingCount="1" stopTime="0.00" timeLoss="19.39" rerouteNo="0" devices="tripinfo_flow2.9" vType="vtypeauto" speedFactor="0.88" vaporized=""/>
    <tripinfo id="flow2.5" depart="13.90" departLane="A0A1_0" departPos="4.10" departSpeed="0.00" departDelay="8.90" arrival="94.20" arrivalLane="C3D3_0" arrivalPos="79.20" arrivalSpeed="15.06" duration="80.30" routeLength="540.89" waitingTime="0.00" waitingCount="0" stopTime="0.00" timeLoss="44.20" rerouteNo="0" devices="tripinfo_flow2.5" vType="vtypeauto" speedFactor="1.18" vaporized=""/>
    <tripinfo id="flow2.6" depart="16.70" departLane="A0A1_0" departPos="4.10" departSpeed="0.00" departDelay="10.70" arrival="95.90" arrivalLane="C3D3_0" arrivalPos="79.20" arrivalSpeed="14.38" duration="79.20" routeLength="540.89" waitingTime="0.00" waitingCount="0" stopTime="0.00" timeLoss="38.43" rerouteNo="0" devices="tripinfo_flow2.6" vType="vtypeauto" speedFactor="1.04" vaporized=""/>
    <tripinfo id="flow2.8" depart="22.30" departLane="A0A1_0" departPos="4.10" departSpeed="0.00" departDelay="14.30" arrival="98.10" arrivalLane="C3D3_0" arrivalPos="79.20" arrivalSpeed="14.16" duration="75.80" routeLength="540.89" waitingTime="0.00" waitingCount="0" stopTime="0.00" timeLoss="34.26" rerouteNo="0" devices="tripinfo_flow2.8" vType="vtypeauto" speedFactor="1.02" vaporized=""/>
    <tripinfo id="flow2.10" depart="27.90" departLane="A0A1_0" departPos="4.10" departSpeed="0.00" departDelay="17.90" arrival="100.80" arrivalLane="C3D3_0" arrivalPos="79.20" arrivalSpeed="13.04" duration="72.90" routeLength="540.89" waitingTime="0.00" waitingCount="0" stopTime="0.00" timeLoss="27.64" rerouteNo="0" devices="tripinfo_flow2.10" vType="vtypeauto" speedFactor="0.94" vaporized=""/>
    <tripinfo id="flow2.11" depart="30.70" departLane="A0A1_0" departPos="4.10" departSpeed="0.00" departDelay="19.70" arrival="102.30" arrivalLane="C3D3_0" arrivalPos="79.20" arrivalSpeed="15.01" duration="71.60" routeLength="540.89" waitingTime="0.00" waitingCount="0" stopTime="0.00" timeLoss="32.44" rerouteNo="0" devices="tripinfo_flow2.11" vType="vtypeauto" speedFactor="1.09" vaporized=""/>
    <tripinfo id="flow0.0" depart="0.00" departLane="B4B3_0" departPos="4.10" departSpeed="0.00" departDelay="0.00" arrival="104.00" arrivalLane="B3A3_1" arrivalPos="79.20" arrivalSpeed="14.72" duration="104.00" routeLength="570.75" waitingTime="51.20" waitingCount="1" stopTime="0.00" timeLoss="63.20" rerouteNo="0" devices="tripinfo_flow0.0" vType="vtypeauto" speedFactor="1.06" vaporized=""/>
    <tripinfo id="flow2.12" depart="33.50" departLane="A0A1_0" departPos="4.10" departSpeed="0.00" departDelay="21.50" arrival="104.80" arrivalLane="C3D3_0" arrivalPos="79.20" arrivalSpeed="13.89" duration="71.30" routeLength="540.89" waitingTime="0.00" waitingCount="0" stopTime="0.00" timeLoss="28.80" rerouteNo="0" devices="tripinfo_flow2.12" vType="vtypeauto" speedFactor="1.00" vaporized=""/>
    <tripinfo id="flow2.13" depart="36.30" departLane="A0A1_0" departPos="4.10" departSpeed="0.00" departDelay="23.30" arrival="107.60" arrivalLane="C3D3_0" arrivalPos="79.20" arrivalSpeed="12.78" duration="71.30" routeLength="540.89" waitingTime="0.00" waitingCount="0" stopTime="0.00" timeLoss="25.13" rerouteNo="0" devices="tripinfo_flow2.13" vType="vtypeauto" speedFactor="0.92" vaporized=""/>
    <tripinfo id="flow2.14" depart="39.10" departLane="A0A1_0" departPos="4.10" departSpeed="0.00" departDelay="25.10" arrival="109.10" arrivalLane="C3D3_0" arrivalPos="79.20" arrivalSpeed="14.70" duration="70.00" routeLength="540.89" waitingTime="0.00" waitingCount="0" stopTime="0.00" timeLoss="30.03" rerouteNo="0" devices="tripinfo_flow2.14" vType="vtypeauto" speedFactor="1.06" vaporized=""/>
    <tripinfo id="flow2.15" depart="41.90" departLane="A0A1_0" departPos="4.10" departSpeed="0.00" departDelay="26.90" arrival="111.30" arrivalLane="C3D3_0" arrivalPos="79.20" arrivalSpeed="14.31" duration="69.40" routeLength="540.89" waitingTime="0.00" waitingCount="0" stopTime="0.00" timeLoss="28.31" rerouteNo="0" devices="tripinfo_flow2.15" vType="vtypeauto" speedFactor="1.03" vaporized=""/>
    <tripinfo id="flow0.8" depart="14.40" departLane="B4B3_0" departPos="4.10" departSpeed="0.00" departDelay="6.40" arrival="111.50" arrivalLane="B3A3_1" arrivalPos="79.20" arrivalSpeed="12.42" duration="97.10" routeLength="570.75" waitingTime="36.60" waitingCount="1" stopTime="0.00" timeLoss="49.05" rerouteNo="0" devices="tripinfo_flow0.8" vType="vtypeauto" speedFactor="0.90" vaporized=""/>
    <tripinfo id="flow2.16" depart="44.70" departLane="A0A1_0" departPos="4.10" departSpeed="0.00" departDelay="28.70" arrival="113.20" arrivalLane="C3D3_0" arrivalPos="79.20" arrivalSpeed="15.17" duration="68.50" routeLength="540.89" waitingTime="0.00" waitingCount="0" stopTime="0.00" timeLoss="29.71" rerouteNo="0" devices="tripinfo_flow2.16" vType="vtypeauto" speedFactor="1.10" vaporized=""/>
    <tripinfo id="flow0.1" depart="2.80" departLane="B4B3_0" departPos="4.10" departSpeed="0.00" departDelay="1.80" arrival="115.80" arrivalLane="B3A3_1" arrivalPos="79.20" arrivalSpeed="12.21" duration="113.00" routeLength="570.75" waitingTime="45.80" waitingCount="1" stopTime="0.00" timeLoss="64.21" rerouteNo="0" devices="tripinfo_flow0.1" vType="vtypeauto" speedFactor="0.89" vaporized=""/>
    <tripinfo id="flow0.9" depart="17.30" departLane="B4B3_0" departPos="4.10" departSpeed="0.00" departDelay="8.30" arrival="117.00" arrivalLane="B3A3_1" arrivalPos="79.20" arrivalSpeed="13.92" duration="99.70" routeLength="570.75" waitingTime="31.10" waitingCount="2" stopTime="0.00" timeLoss="56.78" rerouteNo="0" devices="tripinfo_flow0.9" vType="vtypeauto@flow0.9" speedFactor="1.01" vaporized=""/>
    <tripinfo id="flow0.11" depart="20.20" departLane="B4B3_0" departPos="4.10" departSpeed="0.00" departDelay="9.20" arrival="119.60" arrivalLane="B3A3_1" arrivalPos="79.20" arrivalSpeed="13.94" duration="99.40" routeLength="570.75" waitingTime="24.90" waitingCount="2" stopTime="0.00" timeLoss="56.34" rerouteNo="0" devices="tripinfo_flow0.11" vType="vtypeauto@flow0.11" speedFactor="1.01" vaporized=""/>
    <tripinfo id="flow1.19" depart="52.80" departLane="A3B3_0" departPos="4.10" departSpeed="0.00" departDelay="33.80" arrival="137.20" arrivalLane="D3E3_0" arrivalPos="79.20" arrivalSpeed="16.91" duration="84.40" routeLength="375.10" waitingTime="38.00" waitingCount="4" stopTime="0.00" timeLoss="62.34" rerouteNo="0" devices="tripinfo_flow1.19" vType="vtypeauto" speedFactor="1.23" vaporized=""/>
    <tripinfo id="flow1.18" depart="50.00" departLane="A3B3_0" departPos="4.10" departSpeed="0.00" departDelay="32.00" arrival="138.70" arrivalLane="D3E3_0" arrivalPos="79.20" arrivalSpeed="11.34" duration="88.70" routeLength="375.10" waitingTime="39.80" waitingCount="4" stopTime="0.00" timeLoss="55.79" rerouteNo="0" devices="tripinfo_flow1.18" vType="vtypeauto" speedFactor="0.82" vaporized=""/>
    <tripinfo id="flow1.21" depart="58.30" departLane="A3B3_0" departPos="4.10" departSpeed="0.00" departDelay="37.30" arrival="139.30" arrivalLane="D3E3_1" arrivalPos="79.20" arrivalSpeed="13.33" duration="81.00" routeLength="375.10" waitingTime="19.60" waitingCount="3" stopTime="0.00" timeLoss="53.01" rerouteNo="0" devices="tripinfo_flow1.21" vType="vtypeauto" speedFactor="0.97" vaporized=""/>
    <tripinfo id="flow1.20" depart="55.60" departLane="A3B3_0" departPos="4.10" departSpeed="0.00" departDelay="35.60" arrival="140.20" arrivalLane="D3E3_0" arrivalPos="79.20" arrivalSpeed="13.96" duration="84.60" routeLength="375.10" waitingTime="23.40" waitingCount="4" stopTime="0.00" timeLoss="58.39" rerouteNo="0" devices="tripinfo_flow1.20" vType="vtypeauto@flow1.20" speedFactor="1.01" vaporized=""/>
    <tripinfo id="flow1.23" depart="63.80" departLane="A3B3_0" departPos="4.10" departSpeed="0.00" departDelay="40.80" arrival="140.80" arrivalLane="D3E3_1" arrivalPos="79.20" arrivalSpeed="13.67" duration="77.00" routeLength="375.10" waitingTime="11.20" waitingCount="2" stopTime="0.00" timeLoss="49.77" rerouteNo="0" devices="tripinfo_flow1.23" vType="vtypeauto" speedFactor="0.99" vaporized=""/>
    <tripinfo id="flow1.22" depart="61.10" departLane="A3B3_0" departPos="4.10" departSpeed="0.00" departDelay="39.10" arrival="141.40" arrivalLane="D3E3_0" arrivalPos="79.20" arrivalSpeed="13.92" duration="80.30" routeLength="375.10" waitingTime="16.30" waitingCount="2" stopTime="0.00" timeLoss="53.85" rerouteNo="0" devices="tripinfo_flow1.22" vType="vtypeauto@flow1.22" speedFactor="1.01" vaporized=""/>
    <tripinfo id="flow1.25" depart="69.40" departLane="A3B3_0" departPos="4.10" departSpeed="0.00" departDelay="44.40" arrival="142.30" arrivalLane="D3E3_1" arrivalPos="79.20" arrivalSpeed="15.07" duration="72.90" routeLength="375.10" waitingTime="6.40" waitingCount="1" stopTime="0.00" timeLoss="48.03" rerouteNo="0" devices="tripinfo_flow1.25" vType="vtypeauto" speedFactor="1.09" vaporized=""/>
    <tripinfo id="flow1.24" depart="66.60" departLane="A3B3_0" departPos="4.10" departSpeed="0.00" departDelay="42.60" arrival="142.50" arrivalLane="D3E3_0" arrivalPos="79.20" arrivalSpeed="14.00" duration="75.90" routeLength="375.10" waitingTime="11.60" waitingCount="2" stopTime="0.00" timeLoss="48.85" rerouteNo="0" devices="tripinfo_flow1.24" vType="vtypeauto@flow1.24" speedFactor="1.01" vaporized=""/>
    <tripinfo id="flow1.26" depart="72.20" departLane="A3B3_0" departPos="4.10" departSpeed="0.00" departDelay="46.20" arrival="143.70" arrivalLane="D3E3_0" arrivalPos="79.20" arrivalSpeed="13.98" duration="71.50" routeLength="375.10" waitingTime="6.80" waitingCount="2" stopTime="0.00" timeLoss="44.91" rerouteNo="0" devices="tripinfo_flow1.26" vType="vtypeauto@flow1.26" speedFactor="1.01" vaporized=""/>
    <tripinfo id="flow1.27" depart="74.90" departLane="A3B3_0" departPos="4.10" departSpeed="0.00" departDelay="47.90" arrival="144.20" arrivalLane="D3E3_1" arrivalPos="79.20" arrivalSpeed="12.52" duration="69.30" routeLength="375.10" waitingTime="2.20" waitingCount="1" stopTime="0.00" timeLoss="39.29" rerouteNo="0" devices="tripinfo_flow1.27" vType="vtypeauto" speedFactor="0.90" vaporized=""/>
    <tripinfo id="flow1.28" depart="77.60" departLane="A3B3_0" departPos="4.10" departSpeed="0.00" departDelay="49.60" arrival="145.60" arrivalLane="D3E3_0" arrivalPos="79.20" arrivalSpeed="12.07" duration="68.00" routeLength="375.10" waitingTime="0.80" waitingCount="1" stopTime="0.00" timeLoss="37.03" rerouteNo="0" devices="tripinfo_flow1.28" vType="vtypeauto" speedFactor="0.87" vaporized=""/>
    <tripinfo id="flow1.29" depart="80.40" departLane="A3B3_0" departPos="4.10" departSpeed="0.00" departDelay="51.40" arrival="145.70" arrivalLane="D3E3_1" arrivalPos="79.20" arrivalSpeed="14.81" duration="65.30" routeLength="375.10" waitingTime="0.00" waitingCount="0" stopTime="0.00" timeLoss="39.94" rerouteNo="0" devices="tripinfo_flow1.29" vType="vtypeauto" speedFactor="1.07" vaporized=""/>
    <tripinfo id="flow1.30" depart="82.70" departLane="A3B3_0" departPos="4.10" departSpeed="0.00" departDelay="52.70" arrival="147.10" arrivalLane="D3E3_0" arrivalPos="79.20" arrivalSpeed="14.35" duration="64.40" routeLength="375.10" waitingTime="0.00" waitingCount="0" stopTime="0.00" timeLoss="38.32" rerouteNo="0" devices="tripinfo_flow1.30" vType="vtypeauto" speedFactor="1.04" vaporized=""/>
    <tripinfo id="flow1.31" depart="85.50" departLane="A3B3_0" departPos="4.10" departSpeed="0.00" departDelay="54.50" arrival="147.10" arrivalLane="D3E3_1" arrivalPos="79.20" arrivalSpeed="14.80" duration="61.60" routeLength="375.10" waitingTime="0.00" waitingCount="0" stopTime="0.00" timeLoss="36.27" rerouteNo="0" devices="tripinfo_flow1.31" vType="vtypeauto" speedFactor="1.07" vaporized=""/>
    <tripinfo id="flow1.32" depart="87.20" departLane="A3B3_0" departPos="4.10" departSpeed="0.00" departDelay="55.20" arrival="148.70" arrivalLane="D3E3_0" arrivalPos="79.20" arrivalSpeed="13.42" duration="61.50" routeLength="375.10" waitingTime="0.00" waitingCount="0" stopTime="0.00" timeLoss="33.54" rerouteNo="0" devices="tripinfo_flow1.32" vType="vtypeauto" speedFactor="0.97" vaporized=""/>
    <tripinfo id="flow1.33" depart="90.00" departLane="A3B3_0" departPos="4.10" departSpeed="0.00" departDelay="57.00" arrival="148.80" arrivalLane="D3E3_1" arrivalPos="79.20" arrivalSpeed="13.45" duration="58.80" routeLength="375.10" waitingTime="0.00" waitingCount="0" stopTime="0.00" timeLoss="30.90" rerouteNo="0" devices="tripinfo_flow1.33" vType="vtypeauto" speedFactor="0.97" vaporized=""/>
    <tripinfo id="flow3.0" depart="0.00" departLane="C0C1_0" departPos="4.10" departSpeed="0.00" departDelay="0.00" arrival="149.50" arrivalLane="D4E4_0" arrivalPos="83.20" arrivalSpeed="14.97" duration="149.50" routeLength="1101.23" waitingTime="39.70" waitingCount="4" stopTime="0.00" timeLoss="69.07" rerouteNo="0" devices="tripinfo_flow3.0" vType="vtypeauto" speedFactor="1.08" vaporized=""/>
    <tripinfo id="flow1.34" depart="91.10" departLane="A3B3_0" departPos="4.10" departSpeed="0.00" departDelay="57.10" arrival="150.10" arrivalLane="D3E3_0" arrivalPos="79.20" arrivalSpeed="15.63" duration="59.00" routeLength="375.10" waitingTime="0.00" waitingCount="0" stopTime="0.00" timeLoss="35.00" rerouteNo="0" devices="tripinfo_flow1.34" vType="vtypeauto" speedFactor="1.13" vaporized=""/>
    <tripinfo id="flow1.35" depart="93.90" departLane="A3B3_0" departPos="4.10" departSpeed="0.00" departDelay="58.90" arrival="150.40" arrivalLane="D3E3_1" arrivalPos="79.20" arrivalSpeed="13.48" duration="56.50" routeLength="375.10" waitingTime="0.00" waitingCount="0" stopTime="0.00" timeLoss="28.65" rerouteNo="0" devices="tripinfo_flow1.35" vType="vtypeauto" speedFactor="0.97" vaporized=""/>
    <tripinfo id="flow1.36" depart="94.40" departLane="A3B3_0" departPos="4.10" departSpeed="0.00" departDelay="58.40" arrival="151.70" arrivalLane="D3E3_0" arrivalPos="79.20" arrivalSpeed="13.52" duration="57.30" routeLength="375.10" waitingTime="0.00" waitingCount="0" stopTime="0.00" timeLoss="29.70" rerouteNo="0" devices="tripinfo_flow1.36" vType="vtypeauto" speedFactor="0.98" vaporized=""/>
    <tripinfo id="flow3.1" depart="4.10" departLane="C0C1_0" departPos="4.10" departSpeed="0.00" departDelay="3.10" arrival="152.80" arrivalLane="D4E4_0" arrivalPos="83.20" arrivalSpeed="15.11" duration="148.70" routeLength="1101.23" waitingTime="23.60" waitingCount="2" stopTime="0.00" timeLoss="68.84" rerouteNo="0" devices="tripinfo_flow3.1" vType="vtypeauto" speedFactor="1.09" vaporized=""/>
    <tripinfo id="flow1.38" depart="99.70" departLane="A3B3_0" departPos="4.10" departSpeed="0.00" departDelay="61.70" arrival="153.50" arrivalLane="D3E3_0" arrivalPos="79.20" arrivalSpeed="12.60" duration="53.80" routeLength="375.10" waitingTime="0.00" waitingCount="0" stopTime="0.00" timeLoss="24.23" rerouteNo="0" devices="tripinfo_flow1.38" vType="vtypeauto" speedFactor="0.92" vaporized=""/>
    <tripinfo id="flow1.37" depart="97.90" departLane="A3B3_0" departPos="4.10" departSpeed="0.00" departDelay="60.90" arrival="153.70" arrivalLane="D3E3_1" arrivalPos="79.20" arrivalSpeed="10.43" duration="55.80" routeLength="375.10" waitingTime="0.00" waitingCount="0" stopTime="0.00" timeLoss="19.91" rerouteNo="0" devices="tripinfo_flow1.37" vType="vtypeauto" speedFactor="0.75" vaporized=""/>