<?xml version="1.0" encoding="UTF-8"?>

<!-- generated on 2024-10-30 19:13:54 by Eclipse SUMO sumo Version 1.20.0
<configuration xmlns:xsi="http://www.w3.org/2001/XMLSchema-instance" xsi:noNamespaceSchemaLocation="http://sumo.dlr.de/xsd/sumoConfiguration.xsd">

    <input>
        <net-file value="./sim_cfg_grid_2_lanes/grid.net.xml"/>
        <route-files value="./sim_cfg_grid_2_lanes/10x1.rou.xml"/>
    </input>

    <output>
        <tripinfo-output value="./sim_cfg_grid_2_lanes/tripinfo-platooning_1.141.xml"/>
    </output>

    <time>
        <begin value="0"/>
        <end value="500"/>
        <step-length value="0.1"/>
    </time>

    <traci_server>
        <remote-port value="50116"/>
    </traci_server>

    <gui_only>
        <gui-settings-file value="./sim_cfg_grid_2_lanes/gui_settings.xml"/>
    </gui_only>

</configuration>
-->

<tripinfos xmlns:xsi="http://www.w3.org/2001/XMLSchema-instance" xsi:noNamespaceSchemaLocation="http://sumo.dlr.de/xsd/tripinfo_file.xsd">
    <tripinfo id="flow9.1" depart="2.80" departLane="A2B2_0" departPos="4.10" departSpeed="0.00" departDelay="1.80" arrival="41.70" arrivalLane="D2E2_1" arrivalPos="79.20" arrivalSpeed="3.64" duration="38.90" routeLength="375.10" waitingTime="3.90" waitingCount="1" stopTime="0.00" timeLoss="15.57" rerouteNo="0" devices="tripinfo_flow9.1" vType="vtypeauto" speedFactor="1.16" vaporized=""/>
    <tripinfo id="flow9.0" depart="0.00" departLane="A2B2_0" departPos="4.10" departSpeed="0.00" departDelay="0.00" arrival="43.80" arrivalLane="D2E2_0" arrivalPos="79.20" arrivalSpeed="11.85" duration="43.80" routeLength="375.10" waitingTime="5.50" waitingCount="1" stopTime="0.00" timeLoss="12.21" rerouteNo="0" devices="tripinfo_flow9.0" vType="vtypeauto" speedFactor="0.86" vaporized=""/>
    <tripinfo id="flow9.2" depart="5.60" departLane="A2B2_0" departPos="4.10" departSpeed="0.00" departDelay="3.60" arrival="45.30" arrivalLane="D2E2_0" arrivalPos="79.20" arrivalSpeed="12.84" duration="39.70" routeLength="375.10" waitingTime="0.00" waitingCount="0" stopTime="0.00" timeLoss="10.70" rerouteNo="0" devices="tripinfo_flow9.2" vType="vtypeauto" speedFactor="0.93" vaporized=""/>
    <tripinfo id="flow9.3" depart="8.40" departLane="A2B2_0" departPos="4.10" departSpeed="0.00" departDelay="5.40" arrival="46.70" arrivalLane="D2E2_1" arrivalPos="79.20" arrivalSpeed="0.91" duration="38.30" routeLength="375.10" waitingTime="0.00" waitingCount="0" stopTime="0.00" timeLoss="8.32" rerouteNo="0" devices="tripinfo_flow9.3" vType="vtypeauto" speedFactor="0.90" vaporized=""/>
    <tripinfo id="flow9.4" depart="11.20" departLane="A2B2_0" departPos="4.10" departSpeed="0.00" departDelay="7.20" arrival="47.20" arrivalLane="D2E2_0" arrivalPos="79.20" arrivalSpeed="11.71" duration="36.00" routeLength="375.10" waitingTime="0.00" waitingCount="0" stopTime="0.00" timeLoss="4.20" rerouteNo="0" devices="tripinfo_flow9.4" vType="vtypeauto" speedFactor="0.85" vaporized=""/>
    <tripinfo id="flow9.6" depart="16.80" departLane="A2B2_0" departPos="4.10" departSpeed="0.00" departDelay="10.80" arrival="48.70" arrivalLane="D2E2_0" arrivalPos="79.20" arrivalSpeed="14.13" duration="31.90" routeLength="375.10" waitingTime="0.00" waitingCount="0" stopTime="0.00" timeLoss="5.44" rerouteNo="0" devices="tripinfo_flow9.6" vType="vtypeauto" speedFactor="1.02" vaporized=""/>
    <tripinfo id="flow9.7" depart="19.60" departLane="A2B2_0" departPos="4.10" departSpeed="0.00" departDelay="12.60" arrival="50.10" arrivalLane="D2E2_0" arrivalPos="79.20" arrivalSpeed="15.09" duration="30.50" routeLength="375.10" waitingTime="0.00" waitingCount="0" stopTime="0.00" timeLoss="5.63" rerouteNo="0" devices="tripinfo_flow9.7" vType="vtypeauto" speedFactor="1.09" vaporized=""/>
    <tripinfo id="flow9.5" depart="14.00" departLane="A2B2_0" departPos="4.10" departSpeed="0.00" departDelay="9.00" arrival="50.30" arrivalLane="D2E2_1" arrivalPos="79.20" arrivalSpeed="0.89" duration="36.30" routeLength="375.10" waitingTime="0.00" waitingCount="0" stopTime="0.00" timeLoss="8.45" rerouteNo="0" devices="tripinfo_flow9.5" vType="vtypeauto" speedFactor="0.97" vaporized=""/>
    <tripinfo id="flow9.8" depart="22.30" departLane="A2B2_0" departPos="4.10" departSpeed="0.00" departDelay="14.30" arrival="52.60" arrivalLane="D2E2_0" arrivalPos="79.20" arrivalSpeed="14.17" duration="30.30" routeLength="375.10" waitingTime="0.00" waitingCount="0" stopTime="0.00" timeLoss="3.80" rerouteNo="0" devices="tripinfo_flow9.8" vType="vtypeauto" speedFactor="1.02" vaporized=""/>
    <tripinfo id="flow9.9" depart="25.10" departLane="A2B2_0" departPos="4.10" departSpeed="0.00" departDelay="16.10" arrival="54.10" arrivalLane="D2E2_0" arrivalPos="79.20" arrivalSpeed="15.12" duration="29.00" routeLength="375.10" waitingTime="0.00" waitingCount="0" stopTime="0.00" timeLoss="4.32" rerouteNo="0" devices="tripinfo_flow9.9" vType="vtypeauto" speedFactor="1.10" vaporized=""/>
    <tripinfo id="flow1.1" depart="2.70" departLane="A3B3_0" departPos="4.10" departSpeed="0.00" departDelay="1.70" arrival="79.70" arrivalLane="D3E3_1" arrivalPos="79.20" arrivalSpeed="14.15" duration="77.00" routeLength="375.10" waitingTime="37.50" waitingCount="2" stopTime="0.00" timeLoss="50.66" rerouteNo="0" devices="tripinfo_flow1.1" vType="vtypeauto" speedFactor="1.03" vaporized=""/>
    <tripinfo id="flow1.0" depart="0.00" departLane="A3B3_0" departPos="4.10" departSpeed="0.00" departDelay="0.00" arrival="80.80" arrivalLane="D3E3_0" arrivalPos="79.20" arrivalSpeed="12.62" duration="80.80" routeLength="375.10" waitingTime="39.60" waitingCount="2" stopTime="0.00" timeLoss="51.98" rerouteNo="0" devices="tripinfo_flow1.0" vType="vtypeauto" speedFactor="0.94" vaporized=""/>
    <tripinfo id="flow1.3" depart="8.20" departLane="A3B3_0" departPos="4.10" departSpeed="0.00" departDelay="5.20" arrival="81.10" arrivalLane="D3E3_1" arrivalPos="79.20" arrivalSpeed="15.94" duration="72.90" routeLength="375.10" waitingTime="29.20" waitingCount="1" stopTime="0.00" timeLoss="49.50" rerouteNo="0" devices="tripinfo_flow1.3" vType="vtypeauto" speedFactor="1.15" vaporized=""/>
    <tripinfo id="flow1.2" depart="5.40" departLane="A3B3_0" departPos="4.10" departSpeed="0.00" departDelay="3.40" arrival="81.90" arrivalLane="D3E3_0" arrivalPos="79.20" arrivalSpeed="12.43" duration="76.50" routeLength="375.10" waitingTime="29.00" waitingCount="1" stopTime="0.00" timeLoss="49.71" rerouteNo="0" devices="tripinfo_flow1.2" vType="vtypeauto@flow1.2" speedFactor="1.01" vaporized=""/>
    <tripinfo id="flow6.1" depart="5.60" departLane="D4D3_0" departPos="4.10" departSpeed="0.00" departDelay="4.60" arrival="82.40" arrivalLane="D1D0_0" arrivalPos="79.20" arrivalSpeed="12.11" duration="76.80" routeLength="375.10" waitingTime="31.30" waitingCount="2" stopTime="0.00" timeLoss="45.97" rerouteNo="0" devices="tripinfo_flow6.1" vType="vtypeauto" speedFactor="0.88" vaporized=""/>
    <tripinfo id="flow1.5" depart="13.80" departLane="A3B3_0" departPos="4.10" departSpeed="0.00" departDelay="8.80" arrival="82.50" arrivalLane="D3E3_1" arrivalPos="79.20" arrivalSpeed="16.21" duration="68.70" routeLength="375.10" waitingTime="27.40" waitingCount="1" stopTime="0.00" timeLoss="45.56" rerouteNo="0" devices="tripinfo_flow1.5" vType="vtypeauto" speedFactor="1.17" vaporized=""/>
    <tripinfo id="flow1.4" depart="11.00" departLane="A3B3_0" departPos="4.10" departSpeed="0.00" departDelay="7.00" arrival="83.00" arrivalLane="D3E3_0" arrivalPos="79.20" arrivalSpeed="12.51" duration="72.00" routeLength="375.10" waitingTime="26.80" waitingCount="1" stopTime="0.00" timeLoss="44.23" rerouteNo="0" devices="tripinfo_flow1.4" vType="vtypeauto@flow1.4" speedFactor="1.01" vaporized=""/>
    <tripinfo id="flow6.2" depart="11.20" departLane="D4D3_0" departPos="4.10" departSpeed="0.00" departDelay="9.20" arrival="83.60" arrivalLane="D1D0_1" arrivalPos="79.20" arrivalSpeed="12.63" duration="72.40" routeLength="375.10" waitingTime="22.70" waitingCount="2" stopTime="0.00" timeLoss="42.94" rerouteNo="0" devices="tripinfo_flow6.2" vType="vtypeauto" speedFactor="0.92" vaporized=""/>
    <tripinfo id="flow6.0" depart="0.00" departLane="D4D3_0" departPos="4.10" departSpeed="0.00" departDelay="0.00" arrival="83.90" arrivalLane="D1D0_0" arrivalPos="79.20" arrivalSpeed="14.43" duration="83.90" routeLength="375.10" waitingTime="35.00" waitingCount="3" stopTime="0.00" timeLoss="58.00" rerouteNo="0" devices="tripinfo_flow6.0" vType="vtypeauto" speedFactor="1.05" vaporized=""/>
    <tripinfo id="flow1.6" depart="16.60" departLane="A3B3_0" departPos="4.10" departSpeed="0.00" departDelay="10.60" arrival="83.90" arrivalLane="D3E3_1" arrivalPos="79.20" arrivalSpeed="15.46" duration="67.30" routeLength="375.10" waitingTime="26.00" waitingCount="1" stopTime="0.00" timeLoss="43.18" rerouteNo="0" devices="tripinfo_flow1.6" vType="vtypeauto" speedFactor="1.12" vaporized=""/>
    <tripinfo id="flow1.7" depart="19.40" departLane="A3B3_0" departPos="4.10" departSpeed="0.00" departDelay="12.40" arrival="84.10" arrivalLane="D3E3_0" arrivalPos="79.20" arrivalSpeed="13.17" duration="64.70" routeLength="375.10" waitingTime="19.30" waitingCount="2" stopTime="0.00" timeLoss="37.27" rerouteNo="0" devices="tripinfo_flow1.7" vType="vtypeauto@flow1.7" speedFactor="1.01" vaporized=""/>
    <tripinfo id="flow6.3" depart="16.80" departLane="D4D3_0" departPos="4.10" departSpeed="0.00" departDelay="13.80" arrival="85.20" arrivalLane="D1D0_1" arrivalPos="79.20" arrivalSpeed="13.45" duration="68.40" routeLength="375.10" waitingTime="16.70" waitingCount="2" stopTime="0.00" timeLoss="40.56" rerouteNo="0" devices="tripinfo_flow6.3" vType="vtypeauto" speedFactor="0.97" vaporized=""/>
    <tripinfo id="flow1.9" depart="24.80" departLane="A3B3_0" departPos="4.10" departSpeed="0.00" departDelay="15.80" arrival="85.30" arrivalLane="D3E3_0" arrivalPos="79.20" arrivalSpeed="13.69" duration="60.50" routeLength="375.10" waitingTime="8.70" waitingCount="1" stopTime="0.00" timeLoss="31.39" rerouteNo="0" devices="tripinfo_flow1.9" vType="vtypeauto@flow1.9" speedFactor="1.01" vaporized=""/>
    <tripinfo id="flow1.8" depart="22.10" departLane="A3B3_0" departPos="4.10" departSpeed="0.00" departDelay="14.10" arrival="85.70" arrivalLane="D3E3_1" arrivalPos="79.20" arrivalSpeed="13.76" duration="63.60" routeLength="375.10" waitingTime="18.20" waitingCount="2" stopTime="0.00" timeLoss="36.52" rerouteNo="0" devices="tripinfo_flow1.8" vType="vtypeauto" speedFactor="1.00" vaporized=""/>
    <tripinfo id="flow1.11" depart="30.40" departLane="A3B3_0" departPos="4.10" departSpeed="0.00" departDelay="19.40" arrival="86.40" arrivalLane="D3E3_0" arrivalPos="79.20" arrivalSpeed="13.88" duration="56.00" routeLength="375.10" waitingTime="6.90" waitingCount="1" stopTime="0.00" timeLoss="26.39" rerouteNo="0" devices="tripinfo_flow1.11" vType="vtypeauto@flow1.11" speedFactor="1.01" vaporized=""/>
    <tripinfo id="flow6.4" depart="22.40" departLane="D4D3_0" departPos="4.10" departSpeed="0.00" departDelay="18.40" arrival="86.70" arrivalLane="D1D0_1" arrivalPos="79.20" arrivalSpeed="13.80" duration="64.30" routeLength="375.10" waitingTime="11.30" waitingCount="1" stopTime="0.00" timeLoss="37.15" rerouteNo="0" devices="tripinfo_flow6.4" vType="vtypeauto" speedFactor="1.00" vaporized=""/>
    <tripinfo id="flow9.11" depart="30.60" departLane="A2B2_0" departPos="4.10" departSpeed="0.00" departDelay="19.60" arrival="87.30" arrivalLane="D2E2_0" arrivalPos="79.20" arrivalSpeed="14.87" duration="56.70" routeLength="375.10" waitingTime="22.30" waitingCount="1" stopTime="0.00" timeLoss="31.47" rerouteNo="0" devices="tripinfo_flow9.11" vType="vtypeauto" speedFactor="1.07" vaporized=""/>
    <tripinfo id="flow1.10" depart="27.60" departLane="A3B3_0" departPos="4.10" departSpeed="0.00" departDelay="17.60" arrival="87.40" arrivalLane="D3E3_1" arrivalPos="79.20" arrivalSpeed="13.21" duration="59.80" routeLength="375.10" waitingTime="11.20" waitingCount="1" stopTime="0.00" timeLoss="31.52" rerouteNo="0" devices="tripinfo_flow1.10" vType="vtypeauto" speedFactor="0.96" vaporized=""/>
    <tripinfo id="flow1.13" depart="36.00" departLane="A3B3_0" departPos="4.10" departSpeed="0.00" departDelay="23.00" arrival="87.50" arrivalLane="D3E3_0" arrivalPos="79.20" arrivalSpeed="13.92" duration="51.50" routeLength="375.10" waitingTime="5.10" waitingCount="1" stopTime="0.00" timeLoss="25.56" rerouteNo="0" devices="tripinfo_flow1.13" vType="vtypeauto@flow1.13" speedFactor="1.01" vaporized=""/>
    <tripinfo id="flow6.5" depart="28.00" departLane="D4D3_0" departPos="4.10" departSpeed="0.00" departDelay="23.00" arrival="88.50" arrivalLane="D1D0_1" arrivalPos="79.20" arrivalSpeed="12.37" duration="60.50" routeLength="375.10" waitingTime="6.40" waitingCount="1" stopTime="0.00" timeLoss="30.37" rerouteNo="0" devices="tripinfo_flow6.5" vType="vtypeauto" speedFactor="0.90" vaporized=""/>
    <tripinfo id="flow1.15" depart="41.40" departLane="A3B3_0" departPos="4.10" departSpeed="0.00" departDelay="26.40" arrival="88.60" arrivalLane="D3E3_0" arrivalPos="79.20" arrivalSpeed="13.88" duration="47.20" routeLength="375.10" waitingTime="3.10" waitingCount="1" stopTime="0.00" timeLoss="20.32" rerouteNo="0" devices="tripinfo_flow1.15" vType="vtypeauto@flow1.15" speedFactor="1.01" vaporized=""/>
    <tripinfo id="flow1.12" depart="33.20" departLane="A3B3_0" departPos="4.10" departSpeed="0.00" departDelay="21.20" arrival="88.90" arrivalLane="D3E3_1" arrivalPos="79.20" arrivalSpeed="15.30" duration="55.70" routeLength="375.10" waitingTime="10.00" waitingCount="1" stopTime="0.00" timeLoss="31.14" rerouteNo="0" devices="tripinfo_flow1.12" vType="vtypeauto" speedFactor="1.10" vaporized=""/>
    <tripinfo id="flow9.12" depart="33.30" departLane="A2B2_0" departPos="4.10" departSpeed="0.00" departDelay="21.30" arrival="89.10" arrivalLane="D2E2_0" arrivalPos="79.20" arrivalSpeed="13.96" duration="55.80" routeLength="375.10" waitingTime="16.90" waitingCount="1" stopTime="0.00" timeLoss="28.94" rerouteNo="0" devices="tripinfo_flow9.12" vType="vtypeauto" speedFactor="1.01" vaporized=""/>
    <tripinfo id="flow9.10" depart="27.90" departLane="A2B2_0" departPos="4.10" departSpeed="0.00" departDelay="17.90" arrival="89.90" arrivalLane="D2E2_1" arrivalPos="79.20" arrivalSpeed="0.85" duration="62.00" routeLength="375.10" waitingTime="24.20" waitingCount="1" stopTime="0.00" timeLoss="33.86" rerouteNo="0" devices="tripinfo_flow9.10" vType="vtypeauto" speedFactor="0.96" vaporized=""/>
    <tripinfo id="flow6.6" depart="33.50" departLane="D4D3_0" departPos="4.10" departSpeed="0.00" departDelay="27.50" arrival="90.10" arrivalLane="D1D0_1" arrivalPos="79.20" arrivalSpeed="12.57" duration="56.60" routeLength="375.10" waitingTime="2.10" waitingCount="1" stopTime="0.00" timeLoss="26.76" rerouteNo="0" devices="tripinfo_flow6.6" vType="vtypeauto" speedFactor="0.91" vaporized=""/>
    <tripinfo id="flow1.14" depart="38.70" departLane="A3B3_0" departPos="4.10" departSpeed="0.00" departDelay="24.70" arrival="90.20" arrivalLane="D3E3_1" arrivalPos="79.20" arrivalSpeed="16.16" duration="51.50" routeLength="375.10" waitingTime="8.70" waitingCount="1" stopTime="0.00" timeLoss="28.30" rerouteNo="0" devices="tripinfo_flow1.14" vType="vtypeauto" speedFactor="1.16" vaporized=""/>
    <tripinfo id="flow9.14" depart="38.80" departLane="A2B2_0" departPos="4.10" departSpeed="0.00" departDelay="24.80" arrival="90.60" arrivalLane="D2E2_0" arrivalPos="79.20" arrivalSpeed="14.33" duration="51.80" routeLength="375.10" waitingTime="12.20" waitingCount="1" stopTime="0.00" timeLoss="25.75" rerouteNo="0" devices="tripinfo_flow9.14" vType="vtypeauto" speedFactor="1.04" vaporized=""/>
    <tripinfo id="flow4.0" depart="1.30" departLane="C0C1_0" departPos="4.10" departSpeed="0.00" departDelay="1.30" arrival="91.50" arrivalLane="C3C4_0" arrivalPos="79.20" arrivalSpeed="14.26" duration="90.20" routeLength="375.10" waitingTime="46.80" waitingCount="3" stopTime="0.00" timeLoss="63.99" rerouteNo="0" devices="tripinfo_flow4.0" vType="vtypeauto" speedFactor="1.03" vaporized=""/>
    <tripinfo id="flow6.7" depart="39.10" departLane="D4D3_0" departPos="4.10" departSpeed="0.00" departDelay="32.10" arrival="91.60" arrivalLane="D1D0_1" arrivalPos="79.20" arrivalSpeed="14.34" duration="52.50" routeLength="375.10" waitingTime="0.00" waitingCount="0" stopTime="0.00" timeLoss="26.27" rerouteNo="0" devices="tripinfo_flow6.7" vType="vtypeauto" speedFactor="1.03" vaporized=""/>
    <tripinfo id="flow4.1" depart="4.20" departLane="C0C1_0" departPos="4.10" departSpeed="0.00" departDelay="3.20" arrival="91.70" arrivalLane="C3C4_1" arrivalPos="79.20" arrivalSpeed="13.76" duration="87.50" routeLength="375.10" waitingTime="40.30" waitingCount="2" stopTime="0.00" timeLoss="60.25" rerouteNo="0" devices="tripinfo_flow4.1" vType="vtypeauto" speedFactor="0.99" vaporized=""/>
    <tripinfo id="flow1.16" depart="44.20" departLane="A3B3_0" departPos="4.10" departSpeed="0.00" departDelay="28.20" arrival="91.80" arrivalLane="D3E3_1" arrivalPos="79.20" arrivalSpeed="14.85" duration="47.60" routeLength="375.10" waitingTime="5.90" waitingCount="1" stopTime="0.00" timeLoss="22.46" rerouteNo="0" devices="tripinfo_flow1.16" vType="vtypeauto" speedFactor="1.08" vaporized=""/>
    <tripinfo id="flow9.16" depart="44.40" departLane="A2B2_0" departPos="4.10" departSpeed="0.00" departDelay="28.40" arrival="92.30" arrivalLane="D2E2_0" arrivalPos="79.20" arrivalSpeed="13.04" duration="47.90" routeLength="375.10" waitingTime="8.00" waitingCount="1" stopTime="0.00" timeLoss="19.16" rerouteNo="0" devices="tripinfo_flow9.16" vType="vtypeauto" speedFactor="0.94" vaporized=""/>
    <tripinfo id="flow1.17" depart="47.00" departLane="A3B3_0" departPos="4.10" departSpeed="0.00" departDelay="30.00" arrival="92.30" arrivalLane="D3E3_0" arrivalPos="79.20" arrivalSpeed="12.40" duration="45.30" routeLength="375.10" waitingTime="8.10" waitingCount="1" stopTime="0.00" timeLoss="15.11" rerouteNo="0" devices="tripinfo_flow1.17" vType="vtypeauto" speedFactor="0.90" vaporized=""/>
    <tripinfo id="flow6.8" depart="44.60" departLane="D4D3_0" departPos="4.10" departSpeed="0.00" departDelay="36.60" arrival="93.10" arrivalLane="D1D0_1" arrivalPos="79.20" arrivalSpeed="13.82" duration="48.50" routeLength="375.10" waitingTime="0.00" waitingCount="0" stopTime="0.00" timeLoss="21.48" rerouteNo="0" devices="tripinfo_flow6.8" vType="vtypeauto" speedFactor="1.00" vaporized=""/>
    <tripinfo id="flow4.3" depart="10.00" departLane="C0C1_0" departPos="4.10" departSpeed="0.00" departDelay="7.00" arrival="93.30" arrivalLane="C3C4_1" arrivalPos="79.20" arrivalSpeed="13.74" duration="83.30" routeLength="375.10" waitingTime="30.30" waitingCount="2" stopTime="0.00" timeLoss="56.09" rerouteNo="0" devices="tripinfo_flow4.3" vType="vtypeauto" speedFactor="0.99" vaporized=""/>
    <tripinfo id="flow1.18" depart="49.70" departLane="A3B3_0" departPos="4.10" departSpeed="0.00" departDelay="31.70" arrival="93.40" arrivalLane="D3E3_1" arrivalPos="79.20" arrivalSpeed="14.16" duration="43.70" routeLength="375.10" waitingTime="6.30" waitingCount="1" stopTime="0.00" timeLoss="17.31" rerouteNo="0" devices="tripinfo_flow1.18" vType="vtypeauto" speedFactor="1.03" vaporized=""/>
    <tripinfo id="flow9.13" depart="36.00" departLane="A2B2_0" departPos="4.10" departSpeed="0.00" departDelay="23.00" arrival="93.50" arrivalLane="D2E2_1" arrivalPos="79.20" arrivalSpeed="0.91" duration="57.50" routeLength="375.10" waitingTime="12.90" waitingCount="1" stopTime="0.00" timeLoss="29.18" rerouteNo="0" devices="tripinfo_flow9.13" vType="vtypeauto" speedFactor="0.95" vaporized=""/>
    <tripinfo id="flow2.1" depart="2.80" departLane="A0A1_0" departPos="4.10" departSpeed="0.00" departDelay="1.80" arrival="94.10" arrivalLane="C3D3_0" arrivalPos="79.20" arrivalSpeed="13.99" duration="91.30" routeLength="540.89" waitingTime="17.70" waitingCount="1" stopTime="0.00" timeLoss="50.48" rerouteNo="0" devices="tripinfo_flow2.1" vType="vtypeauto@flow2.1" speedFactor="1.01" vaporized=""/>
    <tripinfo id="flow4.2" depart="7.10" departLane="C0C1_0" departPos="4.10" departSpeed="0.00" departDelay="5.10" arrival="94.10" arrivalLane="C3C4_0" arrivalPos="79.20" arrivalSpeed="11.35" duration="87.00" routeLength="375.10" waitingTime="30.80" waitingCount="2" stopTime="0.00" timeLoss="54.21" rerouteNo="0" devices="tripinfo_flow4.2" vType="vtypeauto" speedFactor="0.83" vaporized=""/>
    <tripinfo id="flow6.9" depart="50.20" departLane="D4D3_0" departPos="4.10" departSpeed="0.00" departDelay="41.20" arrival="94.60" arrivalLane="D1D0_1" arrivalPos="79.20" arrivalSpeed="14.02" duration="44.40" routeLength="375.10" waitingTime="0.00" waitingCount="0" stopTime="0.00" timeLoss="17.62" rerouteNo="0" devices="tripinfo_flow6.9" vType="vtypeauto" speedFactor="1.01" vaporized=""/>
    <tripinfo id="flow2.2" depart="5.60" departLane="A0A1_0" departPos="4.10" departSpeed="0.00" departDelay="3.60" arrival="95.80" arrivalLane="C3D3_0" arrivalPos="79.20" arrivalSpeed="13.94" duration="90.20" routeLength="540.89" waitingTime="15.80" waitingCount="1" stopTime="0.00" timeLoss="47.99" rerouteNo="0" devices="tripinfo_flow2.2" vType="vtypeauto@flow2.2" speedFactor="1.01" vaporized=""/>
    <tripinfo id="flow6.10" depart="55.80" departLane="D4D3_0" departPos="4.10" departSpeed="0.00" departDelay="45.80" arrival="96.10" arrivalLane="D1D0_1" arrivalPos="79.20" arrivalSpeed="13.99" duration="40.30" routeLength="375.10" waitingTime="0.00" waitingCount="0" stopTime="0.00" timeLoss="13.65" rerouteNo="0" devices="tripinfo_flow6.10" vType="vtypeauto" speedFactor="1.01" vaporized=""/>
    <tripinfo id="flow9.15" depart="41.60" departLane="A2B2_0" departPos="4.10" departSpeed="0.00" departDelay="26.60" arrival="97.10" arrivalLane="D2E2_1" arrivalPos="79.20" arrivalSpeed="0.89" duration="55.50" routeLength="375.10" waitingTime="9.70" waitingCount="1" stopTime="0.00" timeLoss="31.86" rerouteNo="0" devices="tripinfo_flow9.15" vType="vtypeauto" speedFactor="1.14" vaporized=""/>
    <tripinfo id="flow2.3" depart="8.40" departLane="A0A1_0" departPos="4.10" departSpeed="0.00" departDelay="5.40" arrival="97.40" arrivalLane="C3D3_0" arrivalPos="79.20" arrivalSpeed="13.89" duration="89.00" routeLength="540.89" waitingTime="12.50" waitingCount="1" stopTime="0.00" timeLoss="47.40" rerouteNo="0" devices="tripinfo_flow2.3" vType="vtypeauto@flow2.3" speedFactor="1.01" vaporized=""/>
    <tripinfo id="flow9.17" depart="47.20" departLane="A2B2_0" departPos="4.10" departSpeed="0.00" departDelay="30.20" arrival="97.90" arrivalLane="D2E2_0" arrivalPos="79.20" arrivalSpeed="8.44" duration="50.70" routeLength="375.10" waitingTime="6.00" waitingCount="1" stopTime="0.00" timeLoss="25.34" rerouteNo="0" devices="tripinfo_flow9.17" vType="vtypeauto" speedFactor="1.06" vaporized=""/>
    <tripinfo id="flow2.4" depart="11.10" departLane="A0A1_0" departPos="4.10" departSpeed="0.00" departDelay="7.10" arrival="99.00" arrivalLane="C3D3_0" arrivalPos="79.20" arrivalSpeed="13.89" duration="87.90" routeLength="540.89" waitingTime="11.10" waitingCount="1" stopTime="0.00" timeLoss="47.67" rerouteNo="0" devices="tripinfo_flow2.4" vType="vtypeauto@flow2.4" speedFactor="1.01" vaporized=""/>
    <tripinfo id="flow2.5" depart="13.90" departLane="A0A1_0" departPos="4.10" departSpeed="0.00" departDelay="8.90" arrival="100.20" arrivalLane="C3D3_0" arrivalPos="79.20" arrivalSpeed="16.03" duration="86.30" routeLength="540.89" waitingTime="9.70" waitingCount="1" stopTime="0.00" timeLoss="55.70" rerouteNo="0" devices="tripinfo_flow2.5" vType="vtypeauto@flow2.5" speedFactor="2.15" vaporized=""/>
    <tripinfo id="flow2.0" depart="0.00" departLane="A0A1_0" departPos="4.10" departSpeed="0.00" departDelay="0.00" arrival="102.80" arrivalLane="C3D3_0" arrivalPos="79.20" arrivalSpeed="13.94" duration="102.80" routeLength="540.89" waitingTime="37.00" waitingCount="7" stopTime="0.00" timeLoss="60.68" rerouteNo="0" devices="tripinfo_flow2.0" vType="vtypeauto" speedFactor="1.01" vaporized=""/>
    <tripinfo id="flow2.6" depart="16.60" departLane="A0A1_0" departPos="4.10" departSpeed="0.00" departDelay="10.60" arrival="105.00" arrivalLane="C3D3_0" arrivalPos="79.20" arrivalSpeed="14.10" duration="88.40" routeLength="540.89" waitingTime="11.80" waitingCount="4" stopTime="0.00" timeLoss="46.57" rerouteNo="0" devices="tripinfo_flow2.6" vType="vtypeauto" speedFactor="1.02" vaporized=""/>
    <tripinfo id="flow2.7" depart="19.40" departLane="A0A1_0" departPos="4.10" departSpeed="0.00" departDelay="12.40" arrival="108.10" arrivalLane="C3D3_0" arrivalPos="79.20" arrivalSpeed="13.05" duration="88.70" routeLength="540.89" waitingTime="8.60" waitingCount="3" stopTime="0.00" timeLoss="43.31" rerouteNo="0" devices="tripinfo_flow2.7" vType="vtypeauto" speedFactor="0.94" vaporized=""/>
    <tripinfo id="flow2.8" depart="22.20" departLane="A0A1_0" departPos="4.10" departSpeed="0.00" departDelay="14.20" arrival="110.50" arrivalLane="C3D3_0" arrivalPos="79.20" arrivalSpeed="14.09" duration="88.30" routeLength="540.89" waitingTime="7.80" waitingCount="5" stopTime="0.00" timeLoss="46.49" rerouteNo="0" devices="tripinfo_flow2.8" vType="vtypeauto" speedFactor="1.02" vaporized=""/>
    <tripinfo id="flow0.0" depart="0.00" departLane="B4B3_0" departPos="4.10" departSpeed="0.00" departDelay="0.00" arrival="114.50" arrivalLane="B3A3_1" arrivalPos="79.20" arrivalSpeed="14.61" duration="114.50" routeLength="570.75" waitingTime="52.10" waitingCount="2" stopTime="0.00" timeLoss="73.73" rerouteNo="0" devices="tripinfo_flow0.0" vType="vtypeauto" speedFactor="1.06" vaporized=""/>
    <tripinfo id="flow0.8" depart="12.00" departLane="B4B3_0" departPos="4.10" departSpeed="0.00" departDelay="4.00" arrival="116.00" arrivalLane="B3A3_1" arrivalPos="79.20" arrivalSpeed="14.32" duration="104.00" routeLength="570.75" waitingTime="32.40" waitingCount="2" stopTime="0.00" timeLoss="62.23" rerouteNo="0" devices="tripinfo_flow0.8" vType="vtypeauto" speedFactor="1.03" vaporized=""/>
    <tripinfo id="flow0.10" depart="15.90" departLane="B4B3_0" departPos="4.10" departSpeed="0.00" departDelay="5.90" arrival="117.50" arrivalLane="B3A3_1" arrivalPos="79.20" arrivalSpeed="14.73" duration="101.60" routeLength="570.75" waitingTime="27.70" waitingCount="2" stopTime="0.00" timeLoss="61.05" rerouteNo="0" devices="tripinfo_flow0.10" vType="vtypeauto" speedFactor="1.06" vaporized=""/>
    <tripinfo id="flow0.1" depart="2.80" departLane="B4B3_0" departPos="4.10" departSpeed="0.00" departDelay="1.80" arrival="119.00" arrivalLane="B3A3_1" arrivalPos="79.20" arrivalSpeed="15.13" duration="116.20" routeLength="570.75" waitingTime="45.80" waitingCount="1" stopTime="0.00" timeLoss="76.55" rerouteNo="0" devices="tripinfo_flow0.1" vType="vtypeauto" speedFactor="1.09" vaporized=""/>
    <tripinfo id="flow2.9" depart="25.10" departLane="A0A1_0" departPos="4.10" departSpeed="0.00" departDelay="16.10" arrival="126.90" arrivalLane="C3D3_0" arrivalPos="79.20" arrivalSpeed="11.54" duration="101.80" routeLength="540.89" waitingTime="14.70" waitingCount="4" stopTime="0.00" timeLoss="50.69" rerouteNo="0" devices="tripinfo_flow2.9" vType="vtypeauto" speedFactor="0.83" vaporized=""/>
    <tripinfo id="flow2.10" depart="27.90" departLane="A0A1_0" departPos="4.10" departSpeed="0.00" departDelay="17.90" arrival="128.40" arrivalLane="C3D3_0" arrivalPos="79.20" arrivalSpeed="13.43" duration="100.50" routeLength="540.89" waitingTime="7.10" waitingCount="7" stopTime="0.00" timeLoss="56.52" rerouteNo="0" devices="tripinfo_flow2.10" vType="vtypeauto" speedFactor="0.97" vaporized=""/>
    <tripinfo id="flow2.11" depart="30.60" departLane="A0A1_0" departPos="4.10" departSpeed="0.00" departDelay="19.60" arrival="129.90" arrivalLane="C3D3_0" arrivalPos="79.20" arrivalSpeed="15.16" duration="99.30" routeLength="540.89" waitingTime="3.10" waitingCount="4" stopTime="0.00" timeLoss="60.53" rerouteNo="0" devices="tripinfo_flow2.11" vType="vtypeauto" speedFactor="1.10" vaporized=""/>
    <tripinfo id="flow2.12" depart="33.40" departLane="A0A1_0" departPos="4.10" departSpeed="0.00" departDelay="21.40" arrival="131.90" arrivalLane="C3D3_0" arrivalPos="79.20" arrivalSpeed="14.30" duration="98.50" routeLength="540.89" waitingTime="11.40" waitingCount="2" stopTime="0.00" timeLoss="57.23" rerouteNo="0" devices="tripinfo_flow2.12" vType="vtypeauto" speedFactor="1.03" vaporized=""/>
    <tripinfo id="flow0.11" depart="21.20" departLane="B4B3_0" departPos="4.10" departSpeed="0.00" departDelay="10.20" arrival="134.60" arrivalLane="B3A3_1" arrivalPos="79.20" arrivalSpeed="12.78" duration="113.40" routeLength="570.75" waitingTime="31.70" waitingCount="4" stopTime="0.00" timeLoss="66.86" rerouteNo="0" devices="tripinfo_flow0.11" vType="vtypeauto" speedFactor="0.93" vaporized=""/>
    <tripinfo id="flow2.13" depart="36.20" departLane="A0A1_0" departPos="4.10" departSpeed="0.00" departDelay="23.20" arrival="134.60" arrivalLane="C3D3_0" arrivalPos="79.20" arrivalSpeed="13.25" duration="98.40" routeLength="540.89" waitingTime="16.20" waitingCount="1" stopTime="0.00" timeLoss="54.09" rerouteNo="0" devices="tripinfo_flow2.13" vType="vtypeauto" speedFactor="0.96" vaporized=""/>
    <tripinfo id="flow0.12" depart="24.60" departLane="B4B3_0" departPos="4.10" departSpeed="0.00" departDelay="12.60" arrival="135.90" arrivalLane="B3A3_1" arrivalPos="79.20" arrivalSpeed="13.97" duration="111.30" routeLength="570.75" waitingTime="24.00" waitingCount="3" stopTime="0.00" timeLoss="68.17" rerouteNo="0" devices="tripinfo_flow0.12" vType="vtypeauto@flow0.12" speedFactor="1.01" vaporized=""/>
    <tripinfo id="flow2.16" depart="44.60" departLane="A0A1_0" departPos="4.10" departSpeed="0.00" departDelay="28.60" arrival="137.00" arrivalLane="C3D3_0" arrivalPos="79.20" arrivalSpeed="13.78" duration="92.40" routeLength="540.89" waitingTime="16.00" waitingCount="4" stopTime="0.00" timeLoss="49.49" rerouteNo="0" devices="tripinfo_flow2.16" vType="vtypeauto" speedFactor="0.99" vaporized=""/>