<?xml version="1.0" encoding="UTF-8"?>

<!-- generated on 2024-10-27 16:47:06 by Eclipse SUMO sumo Version 1.20.0
<configuration xmlns:xsi="http://www.w3.org/2001/XMLSchema-instance" xsi:noNamespaceSchemaLocation="http://sumo.dlr.de/xsd/sumoConfiguration.xsd">

    <input>
        <net-file value="./sim_cfg_grid_2_lanes/grid.net.xml"/>
        <route-files value="./sim_cfg_grid_2_lanes/grid.rou.xml"/>
    </input>

    <output>
        <tripinfo-output value="./sim_cfg_grid_2_lanes/tripinfo_0.799.xml"/>
    </output>

    <time>
        <begin value="0"/>
        <end value="500"/>
        <step-length value="0.1"/>
    </time>

    <traci_server>
        <remote-port value="49242"/>
    </traci_server>

    <gui_only>
        <gui-settings-file value="./sim_cfg_grid_2_lanes/gui_settings.xml"/>
    </gui_only>

</configuration>
-->

<tripinfos xmlns:xsi="http://www.w3.org/2001/XMLSchema-instance" xsi:noNamespaceSchemaLocation="http://sumo.dlr.de/xsd/tripinfo_file.xsd">
    <tripinfo id="flow4.1" depart="4.20" departLane="C0C1_0" departPos="4.10" departSpeed="0.00" departDelay="3.20" arrival="49.60" arrivalLane="C3C4_1" arrivalPos="79.20" arrivalSpeed="14.21" duration="45.40" routeLength="375.10" waitingTime="3.00" waitingCount="1" stopTime="0.00" timeLoss="19.09" rerouteNo="0" devices="tripinfo_flow4.1" vType="vtypeauto" speedFactor="1.03" vaporized=""/>
    <tripinfo id="flow4.0" depart="1.30" departLane="C0C1_0" departPos="4.10" departSpeed="0.00" departDelay="1.30" arrival="49.70" arrivalLane="C3C4_0" arrivalPos="79.20" arrivalSpeed="14.22" duration="48.40" routeLength="375.10" waitingTime="9.30" waitingCount="2" stopTime="0.00" timeLoss="22.11" rerouteNo="0" devices="tripinfo_flow4.0" vType="vtypeauto" speedFactor="1.03" vaporized=""/>
    <tripinfo id="flow4.4" depart="13.30" departLane="C0C1_0" departPos="4.10" departSpeed="0.00" departDelay="9.30" arrival="51.30" arrivalLane="C3C4_1" arrivalPos="79.20" arrivalSpeed="13.93" duration="38.00" routeLength="375.10" waitingTime="0.00" waitingCount="0" stopTime="0.00" timeLoss="11.14" rerouteNo="0" devices="tripinfo_flow4.4" vType="vtypeauto" speedFactor="1.01" vaporized=""/>
    <tripinfo id="flow4.2" depart="7.10" departLane="C0C1_0" departPos="4.10" departSpeed="0.00" departDelay="5.10" arrival="52.20" arrivalLane="C3C4_0" arrivalPos="79.20" arrivalSpeed="12.95" duration="45.10" routeLength="375.10" waitingTime="0.00" waitingCount="0" stopTime="0.00" timeLoss="16.23" rerouteNo="0" devices="tripinfo_flow4.2" vType="vtypeauto" speedFactor="0.94" vaporized=""/>
    <tripinfo id="flow4.6" depart="19.00" departLane="C0C1_0" departPos="4.10" departSpeed="0.00" departDelay="13.00" arrival="53.00" arrivalLane="C3C4_1" arrivalPos="79.20" arrivalSpeed="13.74" duration="34.00" routeLength="375.10" waitingTime="0.00" waitingCount="0" stopTime="0.00" timeLoss="6.84" rerouteNo="0" devices="tripinfo_flow4.6" vType="vtypeauto" speedFactor="1.00" vaporized=""/>
    <tripinfo id="flow4.7" depart="21.90" departLane="C0C1_0" departPos="4.10" departSpeed="0.00" departDelay="14.90" arrival="54.40" arrivalLane="C3C4_1" arrivalPos="79.20" arrivalSpeed="15.15" duration="32.50" routeLength="375.10" waitingTime="0.00" waitingCount="0" stopTime="0.00" timeLoss="7.86" rerouteNo="0" devices="tripinfo_flow4.7" vType="vtypeauto" speedFactor="1.10" vaporized=""/>
    <tripinfo id="flow4.3" depart="10.00" departLane="C0C1_0" departPos="4.10" departSpeed="0.00" departDelay="7.00" arrival="54.70" arrivalLane="C3C4_0" arrivalPos="79.20" arrivalSpeed="12.02" duration="44.70" routeLength="375.10" waitingTime="0.00" waitingCount="0" stopTime="0.00" timeLoss="13.68" rerouteNo="0" devices="tripinfo_flow4.3" vType="vtypeauto" speedFactor="0.87" vaporized=""/>
    <tripinfo id="flow4.5" depart="16.20" departLane="C0C1_0" departPos="4.10" departSpeed="0.00" departDelay="11.20" arrival="56.30" arrivalLane="C3C4_0" arrivalPos="79.20" arrivalSpeed="12.46" duration="40.10" routeLength="375.10" waitingTime="0.00" waitingCount="0" stopTime="0.00" timeLoss="10.07" rerouteNo="0" devices="tripinfo_flow4.5" vType="vtypeauto" speedFactor="0.90" vaporized=""/>
    <tripinfo id="flow4.8" depart="24.80" departLane="C0C1_0" departPos="4.10" departSpeed="0.00" departDelay="16.80" arrival="57.80" arrivalLane="C3C4_0" arrivalPos="79.20" arrivalSpeed="14.95" duration="33.00" routeLength="375.10" waitingTime="0.00" waitingCount="0" stopTime="0.00" timeLoss="7.98" rerouteNo="0" devices="tripinfo_flow4.8" vType="vtypeauto" speedFactor="1.08" vaporized=""/>
    <tripinfo id="flow1.0" depart="0.00" departLane="A3B3_0" departPos="4.10" departSpeed="0.00" departDelay="0.00" arrival="79.90" arrivalLane="D3E3_0" arrivalPos="79.20" arrivalSpeed="12.96" duration="79.90" routeLength="375.10" waitingTime="39.70" waitingCount="2" stopTime="0.00" timeLoss="51.08" rerouteNo="0" devices="tripinfo_flow1.0" vType="vtypeauto" speedFactor="0.94" vaporized=""/>
    <tripinfo id="flow1.1" depart="2.70" departLane="A3B3_0" departPos="4.10" departSpeed="0.00" departDelay="1.70" arrival="80.00" arrivalLane="D3E3_1" arrivalPos="79.20" arrivalSpeed="13.01" duration="77.30" routeLength="375.10" waitingTime="36.50" waitingCount="2" stopTime="0.00" timeLoss="48.48" rerouteNo="0" devices="tripinfo_flow1.1" vType="vtypeauto" speedFactor="0.94" vaporized=""/>
    <tripinfo id="flow1.2" depart="5.40" departLane="A3B3_0" departPos="4.10" departSpeed="0.00" departDelay="3.40" arrival="81.50" arrivalLane="D3E3_0" arrivalPos="79.20" arrivalSpeed="12.79" duration="76.10" routeLength="375.10" waitingTime="29.00" waitingCount="1" stopTime="0.00" timeLoss="46.95" rerouteNo="0" devices="tripinfo_flow1.2" vType="vtypeauto" speedFactor="0.93" vaporized=""/>
    <tripinfo id="flow1.3" depart="8.20" departLane="A3B3_0" departPos="4.10" departSpeed="0.00" departDelay="5.20" arrival="81.60" arrivalLane="D3E3_1" arrivalPos="79.20" arrivalSpeed="13.48" duration="73.40" routeLength="375.10" waitingTime="29.00" waitingCount="1" stopTime="0.00" timeLoss="45.62" rerouteNo="0" devices="tripinfo_flow1.3" vType="vtypeauto" speedFactor="0.97" vaporized=""/>
    <tripinfo id="flow1.4" depart="11.00" departLane="A3B3_0" departPos="4.10" departSpeed="0.00" departDelay="7.00" arrival="83.10" arrivalLane="D3E3_0" arrivalPos="79.20" arrivalSpeed="12.89" duration="72.10" routeLength="375.10" waitingTime="27.30" waitingCount="1" stopTime="0.00" timeLoss="43.09" rerouteNo="0" devices="tripinfo_flow1.4" vType="vtypeauto" speedFactor="0.93" vaporized=""/>
    <tripinfo id="flow1.5" depart="13.80" departLane="A3B3_0" departPos="4.10" departSpeed="0.00" departDelay="8.80" arrival="83.10" arrivalLane="D3E3_1" arrivalPos="79.20" arrivalSpeed="13.51" duration="69.30" routeLength="375.10" waitingTime="27.20" waitingCount="1" stopTime="0.00" timeLoss="41.51" rerouteNo="0" devices="tripinfo_flow1.5" vType="vtypeauto" speedFactor="0.97" vaporized=""/>
    <tripinfo id="flow1.8" depart="22.20" departLane="A3B3_0" departPos="4.10" departSpeed="0.00" departDelay="14.20" arrival="84.50" arrivalLane="D3E3_1" arrivalPos="79.20" arrivalSpeed="15.79" duration="62.30" routeLength="375.10" waitingTime="17.00" waitingCount="2" stopTime="0.00" timeLoss="38.65" rerouteNo="0" devices="tripinfo_flow1.8" vType="vtypeauto" speedFactor="1.14" vaporized=""/>
    <tripinfo id="flow1.6" depart="16.60" departLane="A3B3_0" departPos="4.10" departSpeed="0.00" departDelay="10.60" arrival="84.60" arrivalLane="D3E3_0" arrivalPos="79.20" arrivalSpeed="14.35" duration="68.00" routeLength="375.10" waitingTime="25.80" waitingCount="1" stopTime="0.00" timeLoss="41.94" rerouteNo="0" devices="tripinfo_flow1.6" vType="vtypeauto" speedFactor="1.04" vaporized=""/>
    <tripinfo id="flow2.0" depart="0.00" departLane="A0A1_0" departPos="4.10" departSpeed="0.00" departDelay="0.00" arrival="86.20" arrivalLane="C3D3_0" arrivalPos="79.20" arrivalSpeed="12.59" duration="86.20" routeLength="540.89" waitingTime="18.90" waitingCount="3" stopTime="0.00" timeLoss="44.10" rerouteNo="0" devices="tripinfo_flow2.0" vType="vtypeauto" speedFactor="1.01" vaporized=""/>
    <tripinfo id="flow1.10" depart="27.80" departLane="A3B3_0" departPos="4.10" departSpeed="0.00" departDelay="17.80" arrival="86.20" arrivalLane="D3E3_1" arrivalPos="79.20" arrivalSpeed="13.42" duration="58.40" routeLength="375.10" waitingTime="6.90" waitingCount="1" stopTime="0.00" timeLoss="30.58" rerouteNo="0" devices="tripinfo_flow1.10" vType="vtypeauto" speedFactor="0.97" vaporized=""/>
    <tripinfo id="flow2.1" depart="2.80" departLane="A0A1_0" departPos="4.10" departSpeed="0.00" departDelay="1.80" arrival="86.60" arrivalLane="C3D3_1" arrivalPos="79.20" arrivalSpeed="11.81" duration="83.80" routeLength="540.89" waitingTime="6.90" waitingCount="1" stopTime="0.00" timeLoss="34.12" rerouteNo="0" devices="tripinfo_flow2.1" vType="vtypeauto" speedFactor="0.86" vaporized=""/>
    <tripinfo id="flow1.7" depart="19.40" departLane="A3B3_0" departPos="4.10" departSpeed="0.00" departDelay="12.40" arrival="86.60" arrivalLane="D3E3_0" arrivalPos="79.20" arrivalSpeed="11.77" duration="67.20" routeLength="375.10" waitingTime="19.90" waitingCount="2" stopTime="0.00" timeLoss="35.59" rerouteNo="0" devices="tripinfo_flow1.7" vType="vtypeauto" speedFactor="0.85" vaporized=""/>
    <tripinfo id="flow1.12" depart="33.30" departLane="A3B3_0" departPos="4.10" departSpeed="0.00" departDelay="21.30" arrival="87.70" arrivalLane="D3E3_1" arrivalPos="79.20" arrivalSpeed="13.48" duration="54.40" routeLength="375.10" waitingTime="2.40" waitingCount="1" stopTime="0.00" timeLoss="26.73" rerouteNo="0" devices="tripinfo_flow1.12" vType="vtypeauto" speedFactor="0.98" vaporized=""/>
    <tripinfo id="flow2.2" depart="5.60" departLane="A0A1_0" departPos="4.10" departSpeed="0.00" departDelay="3.60" arrival="87.80" arrivalLane="C3D3_0" arrivalPos="79.20" arrivalSpeed="12.14" duration="82.20" routeLength="540.89" waitingTime="4.80" waitingCount="1" stopTime="0.00" timeLoss="33.76" rerouteNo="0" devices="tripinfo_flow2.2" vType="vtypeauto" speedFactor="0.88" vaporized=""/>
    <tripinfo id="flow1.9" depart="25.00" departLane="A3B3_0" departPos="4.10" departSpeed="0.00" departDelay="16.00" arrival="88.20" arrivalLane="D3E3_0" arrivalPos="79.20" arrivalSpeed="13.01" duration="63.20" routeLength="375.10" waitingTime="10.80" waitingCount="2" stopTime="0.00" timeLoss="34.33" rerouteNo="0" devices="tripinfo_flow1.9" vType="vtypeauto" speedFactor="0.94" vaporized=""/>
    <tripinfo id="flow1.14" depart="38.80" departLane="A3B3_0" departPos="4.10" departSpeed="0.00" departDelay="24.80" arrival="89.20" arrivalLane="D3E3_1" arrivalPos="79.20" arrivalSpeed="15.15" duration="50.40" routeLength="375.10" waitingTime="0.00" waitingCount="0" stopTime="0.00" timeLoss="25.74" rerouteNo="0" devices="tripinfo_flow1.14" vType="vtypeauto" speedFactor="1.10" vaporized=""/>
    <tripinfo id="flow2.8" depart="22.30" departLane="A0A1_0" departPos="4.10" departSpeed="0.00" departDelay="14.30" arrival="89.70" arrivalLane="C3D3_0" arrivalPos="79.20" arrivalSpeed="14.19" duration="67.40" routeLength="540.89" waitingTime="0.10" waitingCount="1" stopTime="0.00" timeLoss="25.80" rerouteNo="0" devices="tripinfo_flow2.8" vType="vtypeauto" speedFactor="1.02" vaporized=""/>
    <tripinfo id="flow1.11" depart="30.60" departLane="A3B3_0" departPos="4.10" departSpeed="0.00" departDelay="19.60" arrival="89.70" arrivalLane="D3E3_0" arrivalPos="79.20" arrivalSpeed="13.96" duration="59.10" routeLength="375.10" waitingTime="5.60" waitingCount="1" stopTime="0.00" timeLoss="32.21" rerouteNo="0" devices="tripinfo_flow1.11" vType="vtypeauto" speedFactor="1.01" vaporized=""/>
    <tripinfo id="flow1.16" depart="44.40" departLane="A3B3_0" departPos="4.10" departSpeed="0.00" departDelay="28.40" arrival="90.80" arrivalLane="D3E3_1" arrivalPos="79.20" arrivalSpeed="13.97" duration="46.40" routeLength="375.10" waitingTime="0.00" waitingCount="0" stopTime="0.00" timeLoss="19.56" rerouteNo="0" devices="tripinfo_flow1.16" vType="vtypeauto" speedFactor="1.01" vaporized=""/>
    <tripinfo id="flow1.13" depart="36.10" departLane="A3B3_0" departPos="4.10" departSpeed="0.00" departDelay="23.10" arrival="91.70" arrivalLane="D3E3_0" arrivalPos="79.20" arrivalSpeed="11.53" duration="55.60" routeLength="375.10" waitingTime="0.00" waitingCount="0" stopTime="0.00" timeLoss="23.19" rerouteNo="0" devices="tripinfo_flow1.13" vType="vtypeauto" speedFactor="0.83" vaporized=""/>
    <tripinfo id="flow2.3" depart="8.40" departLane="A0A1_0" departPos="4.10" departSpeed="0.00" departDelay="5.40" arrival="92.30" arrivalLane="C3D3_0" arrivalPos="79.20" arrivalSpeed="12.23" duration="83.90" routeLength="540.89" waitingTime="2.20" waitingCount="2" stopTime="0.00" timeLoss="36.12" rerouteNo="0" devices="tripinfo_flow2.3" vType="vtypeauto" speedFactor="0.89" vaporized=""/>
    <tripinfo id="flow1.17" depart="47.20" departLane="A3B3_0" departPos="4.10" departSpeed="0.00" departDelay="30.20" arrival="92.50" arrivalLane="D3E3_1" arrivalPos="79.20" arrivalSpeed="13.08" duration="45.30" routeLength="375.10" waitingTime="0.00" waitingCount="0" stopTime="0.00" timeLoss="16.59" rerouteNo="0" devices="tripinfo_flow1.17" vType="vtypeauto" speedFactor="0.94" vaporized=""/>
    <tripinfo id="flow1.15" depart="41.60" departLane="A3B3_0" departPos="4.10" departSpeed="0.00" departDelay="26.60" arrival="93.20" arrivalLane="D3E3_0" arrivalPos="79.20" arrivalSpeed="13.99" duration="51.60" routeLength="375.10" waitingTime="0.00" waitingCount="0" stopTime="0.00" timeLoss="24.96" rerouteNo="0" devices="tripinfo_flow1.15" vType="vtypeauto" speedFactor="1.01" vaporized=""/>
    <tripinfo id="flow2.4" depart="11.10" departLane="A0A1_0" departPos="4.10" departSpeed="0.00" departDelay="7.10" arrival="93.80" arrivalLane="C3D3_0" arrivalPos="79.20" arrivalSpeed="14.99" duration="82.70" routeLength="540.89" waitingTime="4.30" waitingCount="1" stopTime="0.00" timeLoss="46.60" rerouteNo="0" devices="tripinfo_flow2.4" vType="vtypeauto" speedFactor="1.18" vaporized=""/>
    <tripinfo id="flow2.10" depart="27.90" departLane="A0A1_0" departPos="4.10" departSpeed="0.00" departDelay="17.90" arrival="95.80" arrivalLane="C3D3_0" arrivalPos="79.20" arrivalSpeed="13.00" duration="67.90" routeLength="540.89" waitingTime="0.00" waitingCount="0" stopTime="0.00" timeLoss="22.58" rerouteNo="0" devices="tripinfo_flow2.10" vType="vtypeauto" speedFactor="0.94" vaporized=""/>
    <tripinfo id="flow2.5" depart="13.90" departLane="A0A1_0" departPos="4.10" departSpeed="0.00" departDelay="8.90" arrival="97.30" arrivalLane="C3D3_0" arrivalPos="79.20" arrivalSpeed="15.87" duration="83.40" routeLength="540.89" waitingTime="1.10" waitingCount="1" stopTime="0.00" timeLoss="47.29" rerouteNo="0" devices="tripinfo_flow2.5" vType="vtypeauto" speedFactor="1.18" vaporized=""/>
    <tripinfo id="flow2.11" depart="30.70" departLane="A0A1_0" departPos="4.10" departSpeed="0.00" departDelay="19.70" arrival="99.40" arrivalLane="C3D3_0" arrivalPos="79.20" arrivalSpeed="15.09" duration="68.70" routeLength="540.89" waitingTime="0.00" waitingCount="0" stopTime="0.00" timeLoss="29.49" rerouteNo="0" devices="tripinfo_flow2.11" vType="vtypeauto" speedFactor="1.09" vaporized=""/>
    <tripinfo id="flow2.6" depart="16.70" departLane="A0A1_0" departPos="4.10" departSpeed="0.00" departDelay="10.70" arrival="101.60" arrivalLane="C3D3_0" arrivalPos="79.20" arrivalSpeed="14.44" duration="84.90" routeLength="540.89" waitingTime="0.00" waitingCount="0" stopTime="0.00" timeLoss="44.16" rerouteNo="0" devices="tripinfo_flow2.6" vType="vtypeauto" speedFactor="1.04" vaporized=""/>
    <tripinfo id="flow2.7" depart="19.50" departLane="A0A1_0" departPos="4.10" departSpeed="0.00" departDelay="12.50" arrival="103.10" arrivalLane="C3D3_0" arrivalPos="79.20" arrivalSpeed="16.17" duration="83.60" routeLength="540.89" waitingTime="0.00" waitingCount="0" stopTime="0.00" timeLoss="47.21" rerouteNo="0" devices="tripinfo_flow2.7" vType="vtypeauto" speedFactor="1.17" vaporized=""/>
    <tripinfo id="flow2.9" depart="25.10" departLane="A0A1_0" departPos="4.10" departSpeed="0.00" departDelay="16.10" arrival="106.70" arrivalLane="C3D3_0" arrivalPos="79.20" arrivalSpeed="12.19" duration="81.60" routeLength="540.89" waitingTime="0.00" waitingCount="0" stopTime="0.00" timeLoss="33.40" rerouteNo="0" devices="tripinfo_flow2.9" vType="vtypeauto" speedFactor="0.88" vaporized=""/>
    <tripinfo id="flow0.0" depart="0.00" departLane="B4B3_0" departPos="4.10" departSpeed="0.00" departDelay="0.00" arrival="107.90" arrivalLane="B3A3_1" arrivalPos="79.20" arrivalSpeed="14.64" duration="107.90" routeLength="570.75" waitingTime="51.20" waitingCount="1" stopTime="0.00" timeLoss="67.07" rerouteNo="0" devices="tripinfo_flow0.0" vType="vtypeauto" speedFactor="1.06" vaporized=""/>
    <tripinfo id="flow2.12" depart="33.50" departLane="A0A1_0" departPos="4.10" departSpeed="0.00" departDelay="21.50" arrival="108.40" arrivalLane="C3D3_0" arrivalPos="79.20" arrivalSpeed="13.91" duration="74.90" routeLength="540.89" waitingTime="0.00" waitingCount="0" stopTime="0.00" timeLoss="32.42" rerouteNo="0" devices="tripinfo_flow2.12" vType="vtypeauto" speedFactor="1.00" vaporized=""/>
    <tripinfo id="flow0.6" depart="8.80" departLane="B4B3_0" departPos="4.10" departSpeed="0.00" departDelay="2.80" arrival="109.40" arrivalLane="B3A3_1" arrivalPos="79.20" arrivalSpeed="15.06" duration="100.60" routeLength="570.75" waitingTime="36.10" waitingCount="4" stopTime="0.00" timeLoss="60.99" rerouteNo="0" devices="tripinfo_flow0.6" vType="vtypeauto" speedFactor="1.09" vaporized=""/>
    <tripinfo id="flow2.13" depart="36.30" departLane="A0A1_0" departPos="4.10" departSpeed="0.00" departDelay="23.30" arrival="111.10" arrivalLane="C3D3_0" arrivalPos="79.20" arrivalSpeed="12.73" duration="74.80" routeLength="540.89" waitingTime="0.00" waitingCount="0" stopTime="0.00" timeLoss="28.59" rerouteNo="0" devices="tripinfo_flow2.13" vType="vtypeauto" speedFactor="0.92" vaporized=""/>
    <tripinfo id="flow2.14" depart="39.10" departLane="A0A1_0" departPos="4.10" departSpeed="0.00" departDelay="25.10" arrival="112.70" arrivalLane="C3D3_0" arrivalPos="79.20" arrivalSpeed="14.68" duration="73.60" routeLength="540.89" waitingTime="0.00" waitingCount="0" stopTime="0.00" timeLoss="33.58" rerouteNo="0" devices="tripinfo_flow2.14" vType="vtypeauto" speedFactor="1.06" vaporized=""/>
    <tripinfo id="flow0.8" depart="12.00" departLane="B4B3_0" departPos="4.10" departSpeed="0.00" departDelay="4.00" arrival="115.20" arrivalLane="B3A3_1" arrivalPos="79.20" arrivalSpeed="12.48" duration="103.20" routeLength="570.75" waitingTime="28.50" waitingCount="2" stopTime="0.00" timeLoss="55.02" rerouteNo="0" devices="tripinfo_flow0.8" vType="vtypeauto" speedFactor="0.90" vaporized=""/>
    <tripinfo id="flow0.10" depart="15.90" departLane="B4B3_0" departPos="4.10" departSpeed="0.00" departDelay="5.90" arrival="116.70" arrivalLane="B3A3_1" arrivalPos="79.20" arrivalSpeed="14.10" duration="100.80" routeLength="570.75" waitingTime="25.80" waitingCount="2" stopTime="0.00" timeLoss="58.53" rerouteNo="0" devices="tripinfo_flow0.10" vType="vtypeauto" speedFactor="1.02" vaporized=""/>
    <tripinfo id="flow0.12" depart="20.20" departLane="B4B3_0" departPos="4.10" departSpeed="0.00" departDelay="8.20" arrival="118.10" arrivalLane="B3A3_1" arrivalPos="79.20" arrivalSpeed="15.93" duration="97.90" routeLength="570.75" waitingTime="23.80" waitingCount="2" stopTime="0.00" timeLoss="60.23" rerouteNo="0" devices="tripinfo_flow0.12" vType="vtypeauto" speedFactor="1.15" vaporized=""/>
    <tripinfo id="flow1.19" depart="52.70" departLane="A3B3_0" departPos="4.10" departSpeed="0.00" departDelay="33.70" arrival="122.00" arrivalLane="D3E3_1" arrivalPos="79.20" arrivalSpeed="17.01" duration="69.30" routeLength="375.10" waitingTime="37.60" waitingCount="1" stopTime="0.00" timeLoss="47.27" rerouteNo="0" devices="tripinfo_flow1.19" vType="vtypeauto" speedFactor="1.23" vaporized=""/>
    <tripinfo id="flow5.0" depart="0.00" departLane="E2D2_0" departPos="4.10" departSpeed="0.00" departDelay="0.00" arrival="147.10" arrivalLane="B1A1_0" arrivalPos="79.20" arrivalSpeed="11.51" duration="147.10" routeLength="635.44" waitingTime="66.30" waitingCount="3" stopTime="0.00" timeLoss="86.88" rerouteNo="0" devices="tripinfo_flow5.0" vType="vtypeauto" speedFactor="0.83" vaporized=""/>
    <tripinfo id="flow5.1" depart="1.50" departLane="E2D2_0" departPos="4.10" departSpeed="0.00" departDelay="0.50" arrival="148.70" arrivalLane="B1A1_0" arrivalPos="79.20" arrivalSpeed="14.50" duration="147.20" routeLength="635.44" waitingTime="56.30" waitingCount="3" stopTime="0.00" timeLoss="99.32" rerouteNo="0" devices="tripinfo_flow5.1" vType="vtypeauto" speedFactor="1.05" vaporized=""/>
    <tripinfo id="flow1.21" depart="58.30" departLane="A3B3_0" departPos="4.10" departSpeed="0.00" departDelay="37.30" arrival="149.80" arrivalLane="D3E3_1" arrivalPos="79.20" arrivalSpeed="13.38" duration="91.50" routeLength="375.10" waitingTime="47.40" waitingCount="2" stopTime="0.00" timeLoss="63.57" rerouteNo="0" devices="tripinfo_flow1.21" vType="vtypeauto" speedFactor="0.97" vaporized=""/>
    <tripinfo id="flow5.4" depart="7.80" departLane="E2D2_0" departPos="4.10" departSpeed="0.00" departDelay="3.80" arrival="150.10" arrivalLane="B1A1_0" arrivalPos="79.20" arrivalSpeed="16.16" duration="142.30" routeLength="635.44" waitingTime="50.60" waitingCount="3" stopTime="0.00" timeLoss="99.56" rerouteNo="0" devices="tripinfo_flow5.4" vType="vtypeauto" speedFactor="1.17" vaporized=""/>
    <tripinfo id="flow1.18" depart="50.00" departLane="A3B3_0" departPos="4.10" departSpeed="0.00" departDelay="32.00" arrival="150.70" arrivalLane="D3E3_0" arrivalPos="79.20" arrivalSpeed="11.32" duration="100.70" routeLength="375.10" waitingTime="57.70" waitingCount="2" stopTime="0.00" timeLoss="67.79" rerouteNo="0" devices="tripinfo_flow1.18" vType="vtypeauto" speedFactor="0.82" vaporized=""/>
    <tripinfo id="flow4.10" depart="30.60" departLane="C0C1_0" departPos="4.10" departSpeed="0.00" departDelay="20.60" arrival="150.90" arrivalLane="C3C4_1" arrivalPos="79.20" arrivalSpeed="13.19" duration="120.30" routeLength="375.10" waitingTime="79.80" waitingCount="2" stopTime="0.00" timeLoss="91.99" rerouteNo="0" devices="tripinfo_flow4.10" vType="vtypeauto" speedFactor="0.96" vaporized=""/>
    <tripinfo id="flow4.9" depart="27.70" departLane="C0C1_0" departPos="4.10" departSpeed="0.00" departDelay="18.70" arrival="151.20" arrivalLane="C3C4_0" arrivalPos="79.20" arrivalSpeed="12.58" duration="123.50" routeLength="375.10" waitingTime="82.40" waitingCount="2" stopTime="0.00" timeLoss="93.95" rerouteNo="0" devices="tripinfo_flow4.9" vType="vtypeauto" speedFactor="0.91" vaporized=""/>
    <tripinfo id="flow1.23" depart="63.80" departLane="A3B3_0" departPos="4.10" departSpeed="0.00" departDelay="40.80" arrival="151.40" arrivalLane="D3E3_1" arrivalPos="79.20" arrivalSpeed="13.67" duration="87.60" routeLength="375.10" waitingTime="38.90" waitingCount="2" stopTime="0.00" timeLoss="60.33" rerouteNo="0" devices="tripinfo_flow1.23" vType="vtypeauto" speedFactor="0.99" vaporized=""/>
    <tripinfo id="flow5.2" depart="3.30" departLane="E2D2_0" departPos="4.10" departSpeed="0.00" departDelay="1.30" arrival="151.80" arrivalLane="B1A1_0" arrivalPos="79.20" arrivalSpeed="16.05" duration="148.50" routeLength="635.44" waitingTime="52.10" waitingCount="4" stopTime="0.00" timeLoss="105.32" rerouteNo="0" devices="tripinfo_flow5.2" vType="vtypeauto" speedFactor="1.16" vaporized=""/>
    <tripinfo id="flow1.20" depart="55.50" departLane="A3B3_0" departPos="4.10" departSpeed="0.00" departDelay="35.50" arrival="152.20" arrivalLane="D3E3_0" arrivalPos="79.20" arrivalSpeed="13.99" duration="96.70" routeLength="375.10" waitingTime="45.70" waitingCount="2" stopTime="0.00" timeLoss="73.48" rerouteNo="0" devices="tripinfo_flow1.20" vType="vtypeauto" speedFactor="1.16" vaporized=""/>
    <tripinfo id="flow4.12" depart="36.40" departLane="C0C1_0" departPos="4.10" departSpeed="0.00" departDelay="24.40" arrival="152.40" arrivalLane="C3C4_1" arrivalPos="79.20" arrivalSpeed="13.91" duration="116.00" routeLength="375.10" waitingTime="67.60" waitingCount="2" stopTime="0.00" timeLoss="89.17" rerouteNo="0" devices="tripinfo_flow4.12" vType="vtypeauto" speedFactor="1.01" vaporized=""/>
    <tripinfo id="flow4.11" depart="33.50" departLane="C0C1_0" departPos="4.10" departSpeed="0.00" departDelay="22.50" arrival="152.70" arrivalLane="C3C4_0" arrivalPos="79.20" arrivalSpeed="13.75" duration="119.20" routeLength="375.10" waitingTime="70.50" waitingCount="2" stopTime="0.00" timeLoss="92.12" rerouteNo="0" devices="tripinfo_flow4.11" vType="vtypeauto" speedFactor="1.00" vaporized=""/>
    <tripinfo id="flow1.25" depart="69.30" departLane="A3B3_0" departPos="4.10" departSpeed="0.00" departDelay="44.30" arrival="152.80" arrivalLane="D3E3_1" arrivalPos="79.20" arrivalSpeed="15.06" duration="83.50" routeLength="375.10" waitingTime="32.60" waitingCount="2" stopTime="0.00" timeLoss="58.69" rerouteNo="0" devices="tripinfo_flow1.25" vType="vtypeauto" speedFactor="1.09" vaporized=""/>
    <tripinfo id="flow1.22" depart="61.00" departLane="A3B3_0" departPos="4.10" departSpeed="0.00" departDelay="39.00" arrival="153.60" arrivalLane="D3E3_0" arrivalPos="79.20" arrivalSpeed="15.53" duration="92.60" routeLength="375.10" waitingTime="39.30" waitingCount="2" stopTime="0.00" timeLoss="68.52" rerouteNo="0" devices="tripinfo_flow1.22" vType="vtypeauto" speedFactor="1.12" vaporized=""/>
    <tripinfo id="flow4.14" depart="42.20" departLane="C0C1_0" departPos="4.10" departSpeed="0.00" departDelay="28.20" arrival="154.00" arrivalLane="C3C4_1" arrivalPos="79.20" arrivalSpeed="13.41" duration="111.80" routeLength="375.10" waitingTime="60.70" waitingCount="2" stopTime="0.00" timeLoss="83.86" rerouteNo="0" devices="tripinfo_flow4.14" vType="vtypeauto" speedFactor="0.97" vaporized=""/>
    <tripinfo id="flow4.13" depart="39.30" departLane="C0C1_0" departPos="4.10" departSpeed="0.00" departDelay="26.30" arrival="154.20" arrivalLane="C3C4_0" arrivalPos="79.20" arrivalSpeed="14.63" duration="114.90" routeLength="375.10" waitingTime="64.20" waitingCount="2" stopTime="0.00" timeLoss="89.26" rerouteNo="0" devices="tripinfo_flow4.13" vType="vtypeauto" speedFactor="1.06" vaporized=""/>
    <tripinfo id="flow5.5" depart="10.30" departLane="E2D2_0" departPos="4.10" departSpeed="0.00" departDelay="5.30" arrival="154.60" arrivalLane="B1A1_0" arrivalPos="79.20" arrivalSpeed="14.25" duration="144.30" routeLength="635.44" waitingTime="49.90" waitingCount="4" stopTime="0.00" timeLoss="95.60" rerouteNo="0" devices="tripinfo_flow5.5" vType="vtypeauto" speedFactor="1.03" vaporized=""/>
    <tripinfo id="flow1.27" depart="74.80" departLane="A3B3_0" departPos="4.10" departSpeed="0.00" departDelay="47.80" arrival="154.70" arrivalLane="D3E3_1" arrivalPos="79.20" arrivalSpeed="12.49" duration="79.90" routeLength="375.10" waitingTime="27.10" waitingCount="2" stopTime="0.00" timeLoss="49.91" rerouteNo="0" devices="tripinfo_flow1.27" vType="vtypeauto" speedFactor="0.90" vaporized=""/>
    <tripinfo id="flow1.24" depart="66.50" departLane="A3B3_0" departPos="4.10" departSpeed="0.00" departDelay="42.50" arrival="155.30" arrivalLane="D3E3_0" arrivalPos="79.20" arrivalSpeed="13.05" duration="88.80" routeLength="375.10" waitingTime="33.60" waitingCount="2" stopTime="0.00" timeLoss="59.99" rerouteNo="0" devices="tripinfo_flow1.24" vType="vtypeauto" speedFactor="0.94" vaporized=""/>
    <tripinfo id="flow4.16" depart="47.90" departLane="C0C1_0" departPos="4.10" departSpeed="0.00" departDelay="31.90" arrival="155.50" arrivalLane="C3C4_1" arrivalPos="79.20" arrivalSpeed="15.71" duration="107.60" routeLength="375.10" waitingTime="55.60" waitingCount="2" stopTime="0.00" timeLoss="84.57" rerouteNo="0" devices="tripinfo_flow4.16" vType="vtypeauto" speedFactor="1.18" vaporized=""/>
    <tripinfo id="flow4.15" depart="45.00" departLane="C0C1_0" departPos="4.10" departSpeed="0.00" departDelay="30.00" arrival="155.80" arrivalLane="C3C4_0" arrivalPos="79.20" arrivalSpeed="13.31" duration="110.80" routeLength="375.10" waitingTime="57.70" waitingCount="2" stopTime="0.00" timeLoss="82.62" rerouteNo="0" devices="tripinfo_flow4.15" vType="vtypeauto" speedFactor="0.96" vaporized=""/>
    <tripinfo id="flow1.29" depart="80.40" departLane="A3B3_0" departPos="4.10" departSpeed="0.00" departDelay="51.40" arrival="156.20" arrivalLane="D3E3_1" arrivalPos="79.20" arrivalSpeed="14.73" duration="75.80" routeLength="375.10" waitingTime="21.60" waitingCount="2" stopTime="0.00" timeLoss="50.45" rerouteNo="0" devices="tripinfo_flow1.29" vType="vtypeauto" speedFactor="1.07" vaporized=""/>
    <tripinfo id="flow1.26" depart="72.00" departLane="A3B3_0" departPos="4.10" departSpeed="0.00" departDelay="46.00" arrival="156.70" arrivalLane="D3E3_0" arrivalPos="79.20" arrivalSpeed="14.98" duration="84.70" routeLength="375.10" waitingTime="28.40" waitingCount="2" stopTime="0.00" timeLoss="59.72" rerouteNo="0" devices="tripinfo_flow1.26" vType="vtypeauto" speedFactor="1.08" vaporized=""/>
    <tripinfo id="flow4.18" depart="53.70" departLane="C0C1_0" departPos="4.10" departSpeed="0.00" departDelay="35.70" arrival="157.00" arrivalLane="C3C4_1" arrivalPos="79.20" arrivalSpeed="14.23" duration="103.30" routeLength="375.10" waitingTime="49.20" waitingCount="2" stopTime="0.00" timeLoss="77.05" rerouteNo="0" devices="tripinfo_flow4.18" vType="vtypeauto" speedFactor="1.03" vaporized=""/>
    <tripinfo id="flow3.0" depart="0.00" departLane="C0C1_0" departPos="4.10" departSpeed="0.00" departDelay="0.00" arrival="157.30" arrivalLane="D4E4_0" arrivalPos="83.20" arrivalSpeed="15.03" duration="157.30" routeLength="1101.23" waitingTime="48.80" waitingCount="4" stopTime="0.00" timeLoss="76.89" rerouteNo="0" devices="tripinfo_flow3.0" vType="vtypeauto" speedFactor="1.08" vaporized=""/>