<?xml version="1.0" encoding="UTF-8"?>

<!-- generated on 2024-10-30 18:54:11 by Eclipse SUMO sumo Version 1.20.0
<configuration xmlns:xsi="http://www.w3.org/2001/XMLSchema-instance" xsi:noNamespaceSchemaLocation="http://sumo.dlr.de/xsd/sumoConfiguration.xsd">

    <input>
        <net-file value="./sim_cfg_grid_2_lanes/grid.net.xml"/>
        <route-files value="./sim_cfg_grid_2_lanes/7x0.16.rou.xml"/>
    </input>

    <output>
        <tripinfo-output value="./sim_cfg_grid_2_lanes/tripinfo-platooning_0.114.xml"/>
    </output>

    <time>
        <begin value="0"/>
        <end value="500"/>
        <step-length value="0.1"/>
    </time>

    <traci_server>
        <remote-port value="50049"/>
    </traci_server>

    <gui_only>
        <gui-settings-file value="./sim_cfg_grid_2_lanes/gui_settings.xml"/>
    </gui_only>

</configuration>
-->

<tripinfos xmlns:xsi="http://www.w3.org/2001/XMLSchema-instance" xsi:noNamespaceSchemaLocation="http://sumo.dlr.de/xsd/tripinfo_file.xsd">
    <tripinfo id="flow1.0" depart="0.00" departLane="A3B3_0" departPos="4.10" departSpeed="0.00" departDelay="0.00" arrival="54.90" arrivalLane="D3E3_0" arrivalPos="79.20" arrivalSpeed="12.99" duration="54.90" routeLength="375.10" waitingTime="14.80" waitingCount="2" stopTime="0.00" timeLoss="26.13" rerouteNo="0" devices="tripinfo_flow1.0" vType="vtypeauto" speedFactor="0.94" vaporized=""/>
    <tripinfo id="flow5.1" depart="6.00" departLane="D4D3_0" departPos="4.10" departSpeed="0.00" departDelay="0.00" arrival="62.50" arrivalLane="D1D0_1" arrivalPos="79.20" arrivalSpeed="14.16" duration="56.50" routeLength="375.10" waitingTime="13.80" waitingCount="2" stopTime="0.00" timeLoss="30.14" rerouteNo="0" devices="tripinfo_flow5.1" vType="vtypeauto" speedFactor="1.03" vaporized=""/>
    <tripinfo id="flow5.0" depart="0.00" departLane="D4D3_0" departPos="4.10" departSpeed="0.00" departDelay="0.00" arrival="63.60" arrivalLane="D1D0_0" arrivalPos="79.20" arrivalSpeed="11.45" duration="63.60" routeLength="375.10" waitingTime="17.40" waitingCount="3" stopTime="0.00" timeLoss="31.07" rerouteNo="0" devices="tripinfo_flow5.0" vType="vtypeauto" speedFactor="0.83" vaporized=""/>
    <tripinfo id="flow5.2" depart="12.00" departLane="D4D3_0" departPos="4.10" departSpeed="0.00" departDelay="0.00" arrival="64.40" arrivalLane="D1D0_1" arrivalPos="79.20" arrivalSpeed="12.99" duration="52.40" routeLength="375.10" waitingTime="3.40" waitingCount="2" stopTime="0.00" timeLoss="23.65" rerouteNo="0" devices="tripinfo_flow5.2" vType="vtypeauto" speedFactor="0.94" vaporized=""/>
    <tripinfo id="flow2.0" depart="0.00" departLane="A0A1_0" departPos="4.10" departSpeed="0.00" departDelay="0.00" arrival="65.50" arrivalLane="C3D3_0" arrivalPos="79.20" arrivalSpeed="6.98" duration="65.50" routeLength="540.89" waitingTime="5.60" waitingCount="1" stopTime="0.00" timeLoss="23.38" rerouteNo="0" devices="tripinfo_flow2.0" vType="vtypeauto" speedFactor="1.01" vaporized=""/>
    <tripinfo id="flow2.1" depart="6.00" departLane="A0A1_0" departPos="4.10" departSpeed="0.00" departDelay="0.00" arrival="67.80" arrivalLane="C3D3_0" arrivalPos="79.20" arrivalSpeed="12.98" duration="61.80" routeLength="540.89" waitingTime="0.00" waitingCount="0" stopTime="0.00" timeLoss="16.45" rerouteNo="0" devices="tripinfo_flow2.1" vType="vtypeauto" speedFactor="0.94" vaporized=""/>
    <tripinfo id="flow2.2" depart="12.00" departLane="A0A1_0" departPos="4.10" departSpeed="0.00" departDelay="0.00" arrival="70.00" arrivalLane="C3D3_0" arrivalPos="79.20" arrivalSpeed="13.73" duration="58.00" routeLength="540.89" waitingTime="0.00" waitingCount="0" stopTime="0.00" timeLoss="15.10" rerouteNo="0" devices="tripinfo_flow2.2" vType="vtypeauto" speedFactor="0.99" vaporized=""/>
    <tripinfo id="flow1.2" depart="12.00" departLane="A3B3_0" departPos="4.10" departSpeed="0.00" departDelay="0.00" arrival="72.40" arrivalLane="D3E3_1" arrivalPos="79.20" arrivalSpeed="15.56" duration="60.40" routeLength="375.10" waitingTime="17.30" waitingCount="3" stopTime="0.00" timeLoss="36.26" rerouteNo="0" devices="tripinfo_flow1.2" vType="vtypeauto" speedFactor="1.12" vaporized=""/>
    <tripinfo id="flow0.0" depart="0.00" departLane="B4B3_0" departPos="4.10" departSpeed="0.00" departDelay="0.00" arrival="72.50" arrivalLane="B3A3_1" arrivalPos="79.20" arrivalSpeed="14.67" duration="72.50" routeLength="570.75" waitingTime="13.70" waitingCount="3" stopTime="0.00" timeLoss="31.76" rerouteNo="0" devices="tripinfo_flow0.0" vType="vtypeauto" speedFactor="1.06" vaporized=""/>
    <tripinfo id="flow0.1" depart="6.00" departLane="B4B3_0" departPos="4.10" departSpeed="0.00" departDelay="0.00" arrival="72.50" arrivalLane="B3A3_0" arrivalPos="79.20" arrivalSpeed="14.42" duration="66.50" routeLength="570.75" waitingTime="0.00" waitingCount="0" stopTime="0.00" timeLoss="25.20" rerouteNo="0" devices="tripinfo_flow0.1" vType="vtypeauto" speedFactor="1.05" vaporized=""/>
    <tripinfo id="flow1.1" depart="6.00" departLane="A3B3_0" departPos="4.10" departSpeed="0.00" departDelay="0.00" arrival="73.30" arrivalLane="D3E3_0" arrivalPos="79.20" arrivalSpeed="12.30" duration="67.30" routeLength="375.10" waitingTime="21.80" waitingCount="3" stopTime="0.00" timeLoss="36.74" rerouteNo="0" devices="tripinfo_flow1.1" vType="vtypeauto" speedFactor="0.89" vaporized=""/>
    <tripinfo id="flow1.3" depart="18.00" departLane="A3B3_0" departPos="4.10" departSpeed="0.00" departDelay="0.00" arrival="73.80" arrivalLane="D3E3_1" arrivalPos="79.20" arrivalSpeed="16.09" duration="55.80" routeLength="375.10" waitingTime="6.30" waitingCount="1" stopTime="0.00" timeLoss="32.40" rerouteNo="0" devices="tripinfo_flow1.3" vType="vtypeauto" speedFactor="1.16" vaporized=""/>
    <tripinfo id="flow0.2" depart="12.00" departLane="B4B3_0" departPos="4.10" departSpeed="0.00" departDelay="0.00" arrival="74.00" arrivalLane="B3A3_1" arrivalPos="79.20" arrivalSpeed="14.49" duration="62.00" routeLength="570.75" waitingTime="0.00" waitingCount="0" stopTime="0.00" timeLoss="20.70" rerouteNo="0" devices="tripinfo_flow0.2" vType="vtypeauto" speedFactor="1.05" vaporized=""/>
    <tripinfo id="flow5.4" depart="24.00" departLane="D4D3_0" departPos="4.10" departSpeed="0.00" departDelay="0.00" arrival="82.00" arrivalLane="D1D0_1" arrivalPos="79.20" arrivalSpeed="12.93" duration="58.00" routeLength="375.10" waitingTime="15.20" waitingCount="2" stopTime="0.00" timeLoss="29.01" rerouteNo="0" devices="tripinfo_flow5.4" vType="vtypeauto" speedFactor="0.93" vaporized=""/>
    <tripinfo id="flow5.3" depart="18.00" departLane="D4D3_0" departPos="4.10" departSpeed="0.00" departDelay="0.00" arrival="82.20" arrivalLane="D1D0_0" arrivalPos="79.20" arrivalSpeed="12.34" duration="64.20" routeLength="375.10" waitingTime="19.00" waitingCount="3" stopTime="0.00" timeLoss="33.77" rerouteNo="0" devices="tripinfo_flow5.3" vType="vtypeauto" speedFactor="0.89" vaporized=""/>
    <tripinfo id="flow5.5" depart="30.00" departLane="D4D3_0" departPos="4.10" departSpeed="0.00" departDelay="0.00" arrival="83.50" arrivalLane="D1D0_1" arrivalPos="79.20" arrivalSpeed="14.11" duration="53.50" routeLength="375.10" waitingTime="4.70" waitingCount="2" stopTime="0.00" timeLoss="27.01" rerouteNo="0" devices="tripinfo_flow5.5" vType="vtypeauto" speedFactor="1.02" vaporized=""/>
    <tripinfo id="flow4.0" depart="0.00" departLane="E2D2_0" departPos="4.10" departSpeed="0.00" departDelay="0.00" arrival="86.60" arrivalLane="B1A1_0" arrivalPos="79.20" arrivalSpeed="14.24" duration="86.60" routeLength="635.44" waitingTime="21.50" waitingCount="2" stopTime="0.00" timeLoss="38.15" rerouteNo="0" devices="tripinfo_flow4.0" vType="vtypeauto" speedFactor="1.03" vaporized=""/>
    <tripinfo id="flow5.7" depart="42.00" departLane="D4D3_0" departPos="4.10" departSpeed="0.00" departDelay="0.00" arrival="88.20" arrivalLane="D1D0_1" arrivalPos="79.20" arrivalSpeed="12.50" duration="46.20" routeLength="375.10" waitingTime="6.90" waitingCount="1" stopTime="0.00" timeLoss="16.18" rerouteNo="0" devices="tripinfo_flow5.7" vType="vtypeauto" speedFactor="0.90" vaporized=""/>
    <tripinfo id="flow5.6" depart="36.00" departLane="D4D3_0" departPos="4.10" departSpeed="0.00" departDelay="0.00" arrival="88.70" arrivalLane="D1D0_0" arrivalPos="79.20" arrivalSpeed="13.27" duration="52.70" routeLength="375.10" waitingTime="11.30" waitingCount="2" stopTime="0.00" timeLoss="24.41" rerouteNo="0" devices="tripinfo_flow5.6" vType="vtypeauto" speedFactor="0.96" vaporized=""/>
    <tripinfo id="flow5.8" depart="48.00" departLane="D4D3_0" departPos="4.10" departSpeed="0.00" departDelay="0.00" arrival="89.70" arrivalLane="D1D0_1" arrivalPos="79.20" arrivalSpeed="15.21" duration="41.70" routeLength="375.10" waitingTime="1.50" waitingCount="1" stopTime="0.00" timeLoss="17.01" rerouteNo="0" devices="tripinfo_flow5.8" vType="vtypeauto" speedFactor="1.10" vaporized=""/>
    <tripinfo id="flow0.3" depart="18.00" departLane="B4B3_0" departPos="4.10" departSpeed="0.00" departDelay="0.00" arrival="91.00" arrivalLane="B3A3_0" arrivalPos="79.20" arrivalSpeed="12.89" duration="73.00" routeLength="570.75" waitingTime="13.50" waitingCount="2" stopTime="0.00" timeLoss="26.77" rerouteNo="0" devices="tripinfo_flow0.3" vType="vtypeauto" speedFactor="0.94" vaporized=""/>
    <tripinfo id="flow1.5" depart="30.00" departLane="A3B3_0" departPos="4.10" departSpeed="0.00" departDelay="0.00" arrival="96.30" arrivalLane="D3E3_1" arrivalPos="79.20" arrivalSpeed="16.03" duration="66.30" routeLength="375.10" waitingTime="23.40" waitingCount="3" stopTime="0.00" timeLoss="42.87" rerouteNo="0" devices="tripinfo_flow1.5" vType="vtypeauto" speedFactor="1.15" vaporized=""/>
    <tripinfo id="flow1.4" depart="24.00" departLane="A3B3_0" departPos="4.10" departSpeed="0.00" departDelay="0.00" arrival="97.30" arrivalLane="D3E3_0" arrivalPos="79.20" arrivalSpeed="12.05" duration="73.30" routeLength="375.10" waitingTime="27.90" waitingCount="3" stopTime="0.00" timeLoss="42.36" rerouteNo="0" devices="tripinfo_flow1.4" vType="vtypeauto" speedFactor="0.87" vaporized=""/>
    <tripinfo id="flow1.6" depart="36.00" departLane="A3B3_0" departPos="4.10" departSpeed="0.00" departDelay="0.00" arrival="97.70" arrivalLane="D3E3_1" arrivalPos="79.20" arrivalSpeed="16.33" duration="61.70" routeLength="375.10" waitingTime="10.50" waitingCount="2" stopTime="0.00" timeLoss="38.76" rerouteNo="0" devices="tripinfo_flow1.6" vType="vtypeauto" speedFactor="1.18" vaporized=""/>
    <tripinfo id="flow1.7" depart="42.00" departLane="A3B3_0" departPos="4.10" departSpeed="0.00" departDelay="0.00" arrival="98.80" arrivalLane="D3E3_0" arrivalPos="79.20" arrivalSpeed="14.39" duration="56.80" routeLength="375.10" waitingTime="11.90" waitingCount="2" stopTime="0.00" timeLoss="30.76" rerouteNo="0" devices="tripinfo_flow1.7" vType="vtypeauto" speedFactor="1.04" vaporized=""/>
    <tripinfo id="flow5.10" depart="60.00" departLane="D4D3_0" departPos="4.10" departSpeed="0.00" departDelay="0.00" arrival="106.40" arrivalLane="D1D0_1" arrivalPos="79.20" arrivalSpeed="12.14" duration="46.40" routeLength="375.10" waitingTime="4.80" waitingCount="2" stopTime="0.00" timeLoss="15.79" rerouteNo="0" devices="tripinfo_flow5.10" vType="vtypeauto" speedFactor="0.88" vaporized=""/>
    <tripinfo id="flow2.3" depart="18.00" departLane="A0A1_0" departPos="4.10" departSpeed="0.00" departDelay="0.00" arrival="107.50" arrivalLane="C3D3_0" arrivalPos="79.20" arrivalSpeed="5.72" duration="89.50" routeLength="540.89" waitingTime="23.60" waitingCount="4" stopTime="0.00" timeLoss="47.77" rerouteNo="0" devices="tripinfo_flow2.3" vType="vtypeauto" speedFactor="1.02" vaporized=""/>
    <tripinfo id="flow2.4" depart="24.00" departLane="A0A1_0" departPos="4.10" departSpeed="0.00" departDelay="0.00" arrival="107.60" arrivalLane="C3D3_1" arrivalPos="79.20" arrivalSpeed="5.74" duration="83.60" routeLength="540.89" waitingTime="1.20" waitingCount="2" stopTime="0.00" timeLoss="37.28" rerouteNo="0" devices="tripinfo_flow2.4" vType="vtypeauto" speedFactor="0.92" vaporized=""/>
    <tripinfo id="flow5.12" depart="72.00" departLane="D4D3_0" departPos="4.10" departSpeed="0.00" departDelay="0.00" arrival="108.00" arrivalLane="D1D0_1" arrivalPos="79.20" arrivalSpeed="13.53" duration="36.00" routeLength="375.10" waitingTime="0.00" waitingCount="0" stopTime="0.00" timeLoss="8.42" rerouteNo="0" devices="tripinfo_flow5.12" vType="vtypeauto" speedFactor="0.98" vaporized=""/>
    <tripinfo id="flow0.5" depart="30.00" departLane="B4B3_0" departPos="4.10" departSpeed="0.00" departDelay="0.00" arrival="108.30" arrivalLane="B3A3_0" arrivalPos="79.20" arrivalSpeed="16.27" duration="78.30" routeLength="570.75" waitingTime="11.10" waitingCount="2" stopTime="0.00" timeLoss="41.61" rerouteNo="0" devices="tripinfo_flow0.5" vType="vtypeauto" speedFactor="1.18" vaporized=""/>
    <tripinfo id="flow2.5" depart="30.00" departLane="A0A1_0" departPos="4.10" departSpeed="0.00" departDelay="0.00" arrival="109.50" arrivalLane="C3D3_0" arrivalPos="79.20" arrivalSpeed="7.60" duration="79.50" routeLength="540.89" waitingTime="0.00" waitingCount="0" stopTime="0.00" timeLoss="37.26" rerouteNo="0" devices="tripinfo_flow2.5" vType="vtypeauto" speedFactor="1.01" vaporized=""/>
    <tripinfo id="flow2.6" depart="36.00" departLane="A0A1_0" departPos="4.10" departSpeed="0.00" departDelay="0.00" arrival="109.50" arrivalLane="C3D3_1" arrivalPos="79.20" arrivalSpeed="7.84" duration="73.50" routeLength="540.89" waitingTime="8.10" waitingCount="1" stopTime="0.00" timeLoss="34.92" rerouteNo="0" devices="tripinfo_flow2.6" vType="vtypeauto" speedFactor="1.10" vaporized=""/>
    <tripinfo id="flow5.11" depart="66.00" departLane="D4D3_0" departPos="4.10" departSpeed="0.00" departDelay="0.00" arrival="109.60" arrivalLane="D1D0_1" arrivalPos="79.20" arrivalSpeed="13.49" duration="43.60" routeLength="375.10" waitingTime="0.00" waitingCount="0" stopTime="0.00" timeLoss="15.82" rerouteNo="0" devices="tripinfo_flow5.11" vType="vtypeauto" speedFactor="0.97" vaporized=""/>
    <tripinfo id="flow0.4" depart="24.00" departLane="B4B3_0" departPos="4.10" departSpeed="0.00" departDelay="0.00" arrival="109.70" arrivalLane="B3A3_1" arrivalPos="79.20" arrivalSpeed="11.35" duration="85.70" routeLength="570.75" waitingTime="17.90" waitingCount="2" stopTime="0.00" timeLoss="33.39" rerouteNo="0" devices="tripinfo_flow0.4" vType="vtypeauto" speedFactor="0.83" vaporized=""/>
    <tripinfo id="flow0.7" depart="42.00" departLane="B4B3_0" departPos="4.10" departSpeed="0.00" departDelay="0.00" arrival="109.90" arrivalLane="B3A3_0" arrivalPos="79.20" arrivalSpeed="15.14" duration="67.90" routeLength="570.75" waitingTime="0.00" waitingCount="0" stopTime="0.00" timeLoss="28.34" rerouteNo="0" devices="tripinfo_flow0.7" vType="vtypeauto" speedFactor="1.09" vaporized=""/>
    <tripinfo id="flow5.9" depart="54.00" departLane="D4D3_0" departPos="4.10" departSpeed="0.00" departDelay="0.00" arrival="110.90" arrivalLane="D1D0_0" arrivalPos="79.20" arrivalSpeed="13.37" duration="56.90" routeLength="375.10" waitingTime="11.70" waitingCount="2" stopTime="0.00" timeLoss="29.01" rerouteNo="0" devices="tripinfo_flow5.9" vType="vtypeauto" speedFactor="0.97" vaporized=""/>
    <tripinfo id="flow0.6" depart="36.00" departLane="B4B3_0" departPos="4.10" departSpeed="0.00" departDelay="0.00" arrival="111.20" arrivalLane="B3A3_1" arrivalPos="79.20" arrivalSpeed="13.39" duration="75.20" routeLength="570.75" waitingTime="6.30" waitingCount="2" stopTime="0.00" timeLoss="30.86" rerouteNo="0" devices="tripinfo_flow0.6" vType="vtypeauto" speedFactor="0.97" vaporized=""/>
    <tripinfo id="flow1.9" depart="54.00" departLane="A3B3_0" departPos="4.10" departSpeed="0.00" departDelay="0.00" arrival="114.70" arrivalLane="D3E3_0" arrivalPos="79.20" arrivalSpeed="13.76" duration="60.70" routeLength="375.10" waitingTime="12.10" waitingCount="1" stopTime="0.00" timeLoss="33.52" rerouteNo="0" devices="tripinfo_flow1.9" vType="vtypeauto" speedFactor="1.00" vaporized=""/>
    <tripinfo id="flow1.8" depart="48.00" departLane="A3B3_0" departPos="4.10" departSpeed="0.00" departDelay="0.00" arrival="115.50" arrivalLane="D3E3_1" arrivalPos="79.20" arrivalSpeed="11.70" duration="67.50" routeLength="375.10" waitingTime="15.60" waitingCount="3" stopTime="0.00" timeLoss="35.72" rerouteNo="0" devices="tripinfo_flow1.8" vType="vtypeauto" speedFactor="0.85" vaporized=""/>
    <tripinfo id="flow2.7" depart="42.00" departLane="A0A1_0" departPos="4.10" departSpeed="0.00" departDelay="0.00" arrival="116.80" arrivalLane="C3D3_0" arrivalPos="79.20" arrivalSpeed="14.41" duration="74.80" routeLength="540.89" waitingTime="7.80" waitingCount="1" stopTime="0.00" timeLoss="34.02" rerouteNo="0" devices="tripinfo_flow2.7" vType="vtypeauto" speedFactor="1.04" vaporized=""/>
    <tripinfo id="flow1.10" depart="60.00" departLane="A3B3_0" departPos="4.10" departSpeed="0.00" departDelay="0.00" arrival="118.00" arrivalLane="D3E3_0" arrivalPos="79.20" arrivalSpeed="15.49" duration="58.00" routeLength="375.10" waitingTime="17.80" waitingCount="2" stopTime="0.00" timeLoss="33.79" rerouteNo="0" devices="tripinfo_flow1.10" vType="vtypeauto" speedFactor="1.12" vaporized=""/>
    <tripinfo id="flow1.11" depart="66.00" departLane="A3B3_0" departPos="4.10" departSpeed="0.00" departDelay="0.00" arrival="119.20" arrivalLane="D3E3_1" arrivalPos="79.20" arrivalSpeed="12.60" duration="53.20" routeLength="375.10" waitingTime="10.80" waitingCount="2" stopTime="0.00" timeLoss="23.60" rerouteNo="0" devices="tripinfo_flow1.11" vType="vtypeauto" speedFactor="0.91" vaporized=""/>
    <tripinfo id="flow1.12" depart="72.00" departLane="A3B3_0" departPos="4.10" departSpeed="0.00" departDelay="0.00" arrival="119.60" arrivalLane="D3E3_0" arrivalPos="79.20" arrivalSpeed="14.59" duration="47.60" routeLength="375.10" waitingTime="3.30" waitingCount="1" stopTime="0.00" timeLoss="22.03" rerouteNo="0" devices="tripinfo_flow1.12" vType="vtypeauto" speedFactor="1.06" vaporized=""/>
    <tripinfo id="flow2.8" depart="48.00" departLane="A0A1_0" departPos="4.10" departSpeed="0.00" departDelay="0.00" arrival="119.80" arrivalLane="C3D3_0" arrivalPos="79.20" arrivalSpeed="11.85" duration="71.80" routeLength="540.89" waitingTime="0.00" waitingCount="0" stopTime="0.00" timeLoss="21.99" rerouteNo="0" devices="tripinfo_flow2.8" vType="vtypeauto" speedFactor="0.85" vaporized=""/>
    <tripinfo id="flow3.0" depart="0.00" departLane="C0C1_0" departPos="4.10" departSpeed="0.00" departDelay="0.00" arrival="122.10" arrivalLane="D4E4_0" arrivalPos="83.20" arrivalSpeed="14.95" duration="122.10" routeLength="1101.23" waitingTime="16.70" waitingCount="3" stopTime="0.00" timeLoss="41.72" rerouteNo="0" devices="tripinfo_flow3.0" vType="vtypeauto" speedFactor="1.08" vaporized=""/>
    <tripinfo id="flow0.9" depart="54.00" departLane="B4B3_0" departPos="4.10" departSpeed="0.00" departDelay="0.00" arrival="124.70" arrivalLane="B3A3_1" arrivalPos="79.20" arrivalSpeed="13.85" duration="70.70" routeLength="570.75" waitingTime="11.90" waitingCount="2" stopTime="0.00" timeLoss="27.58" rerouteNo="0" devices="tripinfo_flow0.9" vType="vtypeauto" speedFactor="1.00" vaporized=""/>
    <tripinfo id="flow0.10" depart="60.00" departLane="B4B3_0" departPos="4.10" departSpeed="0.00" departDelay="0.00" arrival="126.20" arrivalLane="B3A3_1" arrivalPos="79.20" arrivalSpeed="14.97" duration="66.20" routeLength="570.75" waitingTime="0.00" waitingCount="0" stopTime="0.00" timeLoss="26.23" rerouteNo="0" devices="tripinfo_flow0.10" vType="vtypeauto" speedFactor="1.08" vaporized=""/>
    <tripinfo id="flow0.8" depart="48.00" departLane="B4B3_0" departPos="4.10" departSpeed="0.00" departDelay="0.00" arrival="127.30" arrivalLane="B3A3_0" arrivalPos="79.20" arrivalSpeed="12.14" duration="79.30" routeLength="570.75" waitingTime="12.00" waitingCount="1" stopTime="0.00" timeLoss="30.00" rerouteNo="0" devices="tripinfo_flow0.8" vType="vtypeauto" speedFactor="0.88" vaporized=""/>
    <tripinfo id="flow4.1" depart="6.00" departLane="E2D2_0" departPos="4.10" departSpeed="0.00" departDelay="0.00" arrival="127.70" arrivalLane="B1A1_0" arrivalPos="79.20" arrivalSpeed="15.11" duration="121.70" routeLength="635.44" waitingTime="50.50" waitingCount="5" stopTime="0.00" timeLoss="75.85" rerouteNo="0" devices="tripinfo_flow4.1" vType="vtypeauto" speedFactor="1.09" vaporized=""/>
    <tripinfo id="flow4.2" depart="12.00" departLane="E2D2_0" departPos="4.10" departSpeed="0.00" departDelay="0.00" arrival="130.60" arrivalLane="B1A1_0" arrivalPos="79.20" arrivalSpeed="12.10" duration="118.60" routeLength="635.44" waitingTime="25.40" waitingCount="3" stopTime="0.00" timeLoss="61.59" rerouteNo="0" devices="tripinfo_flow4.2" vType="vtypeauto" speedFactor="0.88" vaporized=""/>
    <tripinfo id="flow2.9" depart="54.00" departLane="A0A1_0" departPos="4.10" departSpeed="0.00" departDelay="0.00" arrival="133.30" arrivalLane="C3D3_0" arrivalPos="79.20" arrivalSpeed="12.40" duration="79.30" routeLength="540.89" waitingTime="9.90" waitingCount="1" stopTime="0.00" timeLoss="32.10" rerouteNo="0" devices="tripinfo_flow2.9" vType="vtypeauto" speedFactor="0.90" vaporized=""/>
    <tripinfo id="flow5.14" depart="84.00" departLane="D4D3_0" departPos="4.10" departSpeed="0.00" departDelay="0.00" arrival="135.60" arrivalLane="D1D0_1" arrivalPos="79.20" arrivalSpeed="14.07" duration="51.60" routeLength="375.10" waitingTime="9.00" waitingCount="2" stopTime="0.00" timeLoss="25.09" rerouteNo="0" devices="tripinfo_flow5.14" vType="vtypeauto" speedFactor="1.02" vaporized=""/>
    <tripinfo id="flow5.13" depart="78.00" departLane="D4D3_0" departPos="4.10" departSpeed="0.00" departDelay="0.00" arrival="135.90" arrivalLane="D1D0_0" arrivalPos="79.20" arrivalSpeed="13.34" duration="57.90" routeLength="375.10" waitingTime="17.00" waitingCount="2" stopTime="0.00" timeLoss="29.92" rerouteNo="0" devices="tripinfo_flow5.13" vType="vtypeauto" speedFactor="0.97" vaporized=""/>
    <tripinfo id="flow5.15" depart="90.00" departLane="D4D3_0" departPos="4.10" departSpeed="0.00" departDelay="0.00" arrival="137.00" arrivalLane="D1D0_1" arrivalPos="79.20" arrivalSpeed="14.55" duration="47.00" routeLength="375.10" waitingTime="4.40" waitingCount="1" stopTime="0.00" timeLoss="21.45" rerouteNo="0" devices="tripinfo_flow5.15" vType="vtypeauto" speedFactor="1.06" vaporized=""/>
    <tripinfo id="flow1.13" depart="78.00" departLane="A3B3_0" departPos="4.10" departSpeed="0.00" departDelay="0.00" arrival="138.40" arrivalLane="D3E3_0" arrivalPos="79.20" arrivalSpeed="15.03" duration="60.40" routeLength="375.10" waitingTime="17.70" waitingCount="3" stopTime="0.00" timeLoss="35.55" rerouteNo="0" devices="tripinfo_flow1.13" vType="vtypeauto" speedFactor="1.09" vaporized=""/>
    <tripinfo id="flow1.14" depart="84.00" departLane="A3B3_0" departPos="4.10" departSpeed="0.00" departDelay="0.00" arrival="138.80" arrivalLane="D3E3_0" arrivalPos="79.20" arrivalSpeed="13.43" duration="54.80" routeLength="375.10" waitingTime="10.60" waitingCount="3" stopTime="0.00" timeLoss="27.05" rerouteNo="0" devices="tripinfo_flow1.14" vType="vtypeauto" speedFactor="0.98" vaporized=""/>
    <tripinfo id="flow1.15" depart="90.00" departLane="A3B3_0" departPos="4.10" departSpeed="0.00" departDelay="0.00" arrival="140.60" arrivalLane="D3E3_1" arrivalPos="79.20" arrivalSpeed="12.29" duration="50.60" routeLength="375.10" waitingTime="0.80" waitingCount="1" stopTime="0.00" timeLoss="20.30" rerouteNo="0" devices="tripinfo_flow1.15" vType="vtypeauto" speedFactor="0.89" vaporized=""/>
    <tripinfo id="flow0.11" depart="66.00" departLane="B4B3_0" departPos="4.10" departSpeed="0.00" departDelay="0.00" arrival="143.00" arrivalLane="B3A3_1" arrivalPos="79.20" arrivalSpeed="12.59" duration="77.00" routeLength="570.75" waitingTime="10.10" waitingCount="1" stopTime="0.00" timeLoss="29.29" rerouteNo="0" devices="tripinfo_flow0.11" vType="vtypeauto" speedFactor="0.91" vaporized=""/>
    <tripinfo id="flow3.1" depart="6.00" departLane="C0C1_0" departPos="4.10" departSpeed="0.00" departDelay="0.00" arrival="154.20" arrivalLane="D4E4_0" arrivalPos="83.20" arrivalSpeed="11.82" duration="148.20" routeLength="1101.23" waitingTime="17.50" waitingCount="3" stopTime="0.00" timeLoss="46.53" rerouteNo="0" devices="tripinfo_flow3.1" vType="vtypeauto" speedFactor="0.86" vaporized=""/>
    <tripinfo id="flow5.17" depart="102.00" departLane="D4D3_0" departPos="4.10" departSpeed="0.00" departDelay="0.00" arrival="154.60" arrivalLane="D1D0_1" arrivalPos="79.20" arrivalSpeed="14.28" duration="52.60" routeLength="375.10" waitingTime="13.30" waitingCount="2" stopTime="0.00" timeLoss="26.50" rerouteNo="0" devices="tripinfo_flow5.17" vType="vtypeauto" speedFactor="1.03" vaporized=""/>
    <tripinfo id="flow5.16" depart="96.00" departLane="D4D3_0" departPos="4.10" departSpeed="0.00" departDelay="0.00" arrival="154.90" arrivalLane="D1D0_0" arrivalPos="79.20" arrivalSpeed="13.17" duration="58.90" routeLength="375.10" waitingTime="18.60" waitingCount="2" stopTime="0.00" timeLoss="30.62" rerouteNo="0" devices="tripinfo_flow5.16" vType="vtypeauto" speedFactor="0.96" vaporized=""/>
    <tripinfo id="flow2.10" depart="60.00" departLane="A0A1_0" departPos="4.10" departSpeed="0.00" departDelay="0.00" arrival="155.60" arrivalLane="C3D3_1" arrivalPos="79.20" arrivalSpeed="5.73" duration="95.60" routeLength="540.89" waitingTime="18.60" waitingCount="3" stopTime="0.00" timeLoss="53.83" rerouteNo="0" devices="tripinfo_flow2.10" vType="vtypeauto" speedFactor="1.02" vaporized=""/>
    <tripinfo id="flow5.19" depart="114.00" departLane="D4D3_0" departPos="4.10" departSpeed="0.00" departDelay="0.00" arrival="156.10" arrivalLane="D1D0_1" arrivalPos="79.20" arrivalSpeed="14.77" duration="42.10" routeLength="375.10" waitingTime="3.00" waitingCount="1" stopTime="0.00" timeLoss="16.87" rerouteNo="0" devices="tripinfo_flow5.19" vType="vtypeauto" speedFactor="1.07" vaporized=""/>
    <tripinfo id="flow3.2" depart="12.00" departLane="C0C1_0" departPos="4.10" departSpeed="0.00" departDelay="0.00" arrival="156.40" arrivalLane="D4E4_0" arrivalPos="83.20" arrivalSpeed="12.83" duration="144.40" routeLength="1101.23" waitingTime="6.50" waitingCount="2" stopTime="0.00" timeLoss="50.27" rerouteNo="0" devices="tripinfo_flow3.2" vType="vtypeauto" speedFactor="0.93" vaporized=""/>
    <tripinfo id="flow5.18" depart="108.00" departLane="D4D3_0" departPos="4.10" departSpeed="0.00" departDelay="0.00" arrival="156.40" arrivalLane="D1D0_0" arrivalPos="79.20" arrivalSpeed="13.95" duration="48.40" routeLength="375.10" waitingTime="2.30" waitingCount="1" stopTime="0.00" timeLoss="21.58" rerouteNo="0" devices="tripinfo_flow5.18" vType="vtypeauto" speedFactor="1.01" vaporized=""/>
    <tripinfo id="flow2.11" depart="66.00" departLane="A0A1_0" departPos="4.10" departSpeed="0.00" departDelay="0.00" arrival="157.60" arrivalLane="C3D3_0" arrivalPos="79.20" arrivalSpeed="7.69" duration="91.60" routeLength="540.89" waitingTime="11.10" waitingCount="2" stopTime="0.00" timeLoss="50.77" rerouteNo="0" devices="tripinfo_flow2.11" vType="vtypeauto" speedFactor="1.04" vaporized=""/>
    <tripinfo id="flow2.12" depart="72.00" departLane="A0A1_0" departPos="4.10" departSpeed="0.00" departDelay="0.00" arrival="159.30" arrivalLane="C3D3_0" arrivalPos="79.20" arrivalSpeed="9.89" duration="87.30" routeLength="540.89" waitingTime="4.40" waitingCount="1" stopTime="0.00" timeLoss="42.79" rerouteNo="0" devices="tripinfo_flow2.12" vType="vtypeauto" speedFactor="0.96" vaporized=""/>
    <tripinfo id="flow2.13" depart="78.00" departLane="A0A1_0" departPos="4.10" departSpeed="0.00" departDelay="0.00" arrival="160.90" arrivalLane="C3D3_0" arrivalPos="79.20" arrivalSpeed="11.82" duration="82.90" routeLength="540.89" waitingTime="13.80" waitingCount="2" stopTime="0.00" timeLoss="41.73" rerouteNo="0" devices="tripinfo_flow2.13" vType="vtypeauto" speedFactor="1.03" vaporized=""/>
    <tripinfo id="flow0.13" depart="78.00" departLane="B4B3_0" departPos="4.10" departSpeed="0.00" departDelay="0.00" arrival="162.20" arrivalLane="B3A3_0" arrivalPos="79.20" arrivalSpeed="13.91" duration="84.20" routeLength="570.75" waitingTime="8.30" waitingCount="1" stopTime="0.00" timeLoss="41.30" rerouteNo="0" devices="tripinfo_flow0.13" vType="vtypeauto" speedFactor="1.01" vaporized=""/>
    <tripinfo id="flow2.14" depart="84.00" departLane="A0A1_0" departPos="4.10" departSpeed="0.00" departDelay="0.00" arrival="162.40" arrivalLane="C3D3_0" arrivalPos="79.20" arrivalSpeed="13.80" duration="78.40" routeLength="540.89" waitingTime="9.60" waitingCount="1" stopTime="0.00" timeLoss="35.87" rerouteNo="0" devices="tripinfo_flow2.14" vType="vtypeauto" speedFactor="1.00" vaporized=""/>
    <tripinfo id="flow0.12" depart="72.00" departLane="B4B3_0" departPos="4.10" departSpeed="0.00" departDelay="0.00" arrival="162.90" arrivalLane="B3A3_0" arrivalPos="79.20" arrivalSpeed="12.93" duration="90.90" routeLength="570.75" waitingTime="25.50" waitingCount="4" stopTime="0.00" timeLoss="44.95" rerouteNo="0" devices="tripinfo_flow0.12" vType="vtypeauto" speedFactor="0.94" vaporized=""/>
    <tripinfo id="flow1.17" depart="102.00" departLane="A3B3_0" departPos="4.10" departSpeed="0.00" departDelay="0.00" arrival="163.10" arrivalLane="D3E3_1" arrivalPos="79.20" arrivalSpeed="13.12" duration="61.10" routeLength="375.10" waitingTime="16.10" waitingCount="3" stopTime="0.00" timeLoss="32.67" rerouteNo="0" devices="tripinfo_flow1.17" vType="vtypeauto" speedFactor="0.95" vaporized=""/>
    <tripinfo id="flow1.16" depart="96.00" departLane="A3B3_0" departPos="4.10" departSpeed="0.00" departDelay="0.00" arrival="163.20" arrivalLane="D3E3_0" arrivalPos="79.20" arrivalSpeed="12.52" duration="67.20" routeLength="375.10" waitingTime="22.50" waitingCount="3" stopTime="0.00" timeLoss="37.40" rerouteNo="0" devices="tripinfo_flow1.16" vType="vtypeauto" speedFactor="0.91" vaporized=""/>