<?xml version="1.0" encoding="UTF-8"?>

<!-- generated on 2024-10-30 19:09:02 by Eclipse SUMO sumo Version 1.20.0
<configuration xmlns:xsi="http://www.w3.org/2001/XMLSchema-instance" xsi:noNamespaceSchemaLocation="http://sumo.dlr.de/xsd/sumoConfiguration.xsd">

    <input>
        <net-file value="./sim_cfg_grid_2_lanes/grid.net.xml"/>
        <route-files value="./sim_cfg_grid_2_lanes/10x0.3.rou.xml"/>
    </input>

    <output>
        <tripinfo-output value="./sim_cfg_grid_2_lanes/tripinfo_0.38.xml"/>
    </output>

    <time>
        <begin value="0"/>
        <end value="500"/>
        <step-length value="0.1"/>
    </time>

    <traci_server>
        <remote-port value="50093"/>
    </traci_server>

    <gui_only>
        <gui-settings-file value="./sim_cfg_grid_2_lanes/gui_settings.xml"/>
    </gui_only>

</configuration>
-->

<tripinfos xmlns:xsi="http://www.w3.org/2001/XMLSchema-instance" xsi:noNamespaceSchemaLocation="http://sumo.dlr.de/xsd/tripinfo_file.xsd">
    <tripinfo id="flow9.1" depart="3.00" departLane="A2B2_0" departPos="4.10" departSpeed="0.00" departDelay="0.00" arrival="40.70" arrivalLane="D2E2_1" arrivalPos="79.20" arrivalSpeed="15.97" duration="37.70" routeLength="375.10" waitingTime="3.80" waitingCount="1" stopTime="0.00" timeLoss="14.32" rerouteNo="0" devices="tripinfo_flow9.1" vType="vtypeauto" speedFactor="1.16" vaporized=""/>
    <tripinfo id="flow9.0" depart="0.00" departLane="A2B2_0" departPos="4.10" departSpeed="0.00" departDelay="0.00" arrival="43.70" arrivalLane="D2E2_0" arrivalPos="79.20" arrivalSpeed="11.81" duration="43.70" routeLength="375.10" waitingTime="5.50" waitingCount="1" stopTime="0.00" timeLoss="12.19" rerouteNo="0" devices="tripinfo_flow9.0" vType="vtypeauto" speedFactor="0.86" vaporized=""/>
    <tripinfo id="flow9.3" depart="9.00" departLane="A2B2_0" departPos="4.10" departSpeed="0.00" departDelay="0.00" arrival="44.80" arrivalLane="D2E2_1" arrivalPos="79.20" arrivalSpeed="12.50" duration="35.80" routeLength="375.10" waitingTime="0.00" waitingCount="0" stopTime="0.00" timeLoss="5.74" rerouteNo="0" devices="tripinfo_flow9.3" vType="vtypeauto" speedFactor="0.90" vaporized=""/>
    <tripinfo id="flow9.2" depart="6.00" departLane="A2B2_0" departPos="4.10" departSpeed="0.00" departDelay="0.00" arrival="45.30" arrivalLane="D2E2_0" arrivalPos="79.20" arrivalSpeed="12.88" duration="39.30" routeLength="375.10" waitingTime="0.00" waitingCount="0" stopTime="0.00" timeLoss="10.28" rerouteNo="0" devices="tripinfo_flow9.2" vType="vtypeauto" speedFactor="0.93" vaporized=""/>
    <tripinfo id="flow9.5" depart="15.00" departLane="A2B2_0" departPos="4.10" departSpeed="0.00" departDelay="0.00" arrival="46.50" arrivalLane="D2E2_1" arrivalPos="79.20" arrivalSpeed="13.45" duration="31.50" routeLength="375.10" waitingTime="0.00" waitingCount="0" stopTime="0.00" timeLoss="3.62" rerouteNo="0" devices="tripinfo_flow9.5" vType="vtypeauto" speedFactor="0.97" vaporized=""/>
    <tripinfo id="flow9.4" depart="12.00" departLane="A2B2_0" departPos="4.10" departSpeed="0.00" departDelay="0.00" arrival="47.20" arrivalLane="D2E2_0" arrivalPos="79.20" arrivalSpeed="11.77" duration="35.20" routeLength="375.10" waitingTime="0.00" waitingCount="0" stopTime="0.00" timeLoss="3.38" rerouteNo="0" devices="tripinfo_flow9.4" vType="vtypeauto" speedFactor="0.85" vaporized=""/>
    <tripinfo id="flow9.6" depart="18.00" departLane="A2B2_0" departPos="4.10" departSpeed="0.00" departDelay="0.00" arrival="48.70" arrivalLane="D2E2_0" arrivalPos="79.20" arrivalSpeed="14.18" duration="30.70" routeLength="375.10" waitingTime="0.00" waitingCount="0" stopTime="0.00" timeLoss="4.26" rerouteNo="0" devices="tripinfo_flow9.6" vType="vtypeauto" speedFactor="1.02" vaporized=""/>
    <tripinfo id="flow9.7" depart="21.00" departLane="A2B2_0" departPos="4.10" departSpeed="0.00" departDelay="0.00" arrival="50.20" arrivalLane="D2E2_0" arrivalPos="79.20" arrivalSpeed="15.00" duration="29.20" routeLength="375.10" waitingTime="0.00" waitingCount="0" stopTime="0.00" timeLoss="4.34" rerouteNo="0" devices="tripinfo_flow9.7" vType="vtypeauto" speedFactor="1.09" vaporized=""/>
    <tripinfo id="flow9.8" depart="24.00" departLane="A2B2_0" departPos="4.10" departSpeed="0.00" departDelay="0.00" arrival="54.30" arrivalLane="D2E2_0" arrivalPos="79.20" arrivalSpeed="14.13" duration="30.30" routeLength="375.10" waitingTime="0.00" waitingCount="0" stopTime="0.00" timeLoss="3.80" rerouteNo="0" devices="tripinfo_flow9.8" vType="vtypeauto" speedFactor="1.02" vaporized=""/>
    <tripinfo id="flow9.9" depart="27.00" departLane="A2B2_0" departPos="4.10" departSpeed="0.00" departDelay="0.00" arrival="55.80" arrivalLane="D2E2_0" arrivalPos="79.20" arrivalSpeed="15.20" duration="28.80" routeLength="375.10" waitingTime="0.00" waitingCount="0" stopTime="0.00" timeLoss="4.15" rerouteNo="0" devices="tripinfo_flow9.9" vType="vtypeauto" speedFactor="1.10" vaporized=""/>
    <tripinfo id="flow6.0" depart="0.00" departLane="D4D3_0" departPos="4.10" departSpeed="0.00" departDelay="0.00" arrival="71.50" arrivalLane="D1D0_0" arrivalPos="79.20" arrivalSpeed="14.44" duration="71.50" routeLength="375.10" waitingTime="32.80" waitingCount="2" stopTime="0.00" timeLoss="45.62" rerouteNo="0" devices="tripinfo_flow6.0" vType="vtypeauto" speedFactor="1.05" vaporized=""/>
    <tripinfo id="flow6.1" depart="5.60" departLane="D4D3_0" departPos="4.10" departSpeed="0.00" departDelay="2.60" arrival="73.50" arrivalLane="D1D0_0" arrivalPos="79.20" arrivalSpeed="12.17" duration="67.90" routeLength="375.10" waitingTime="26.30" waitingCount="1" stopTime="0.00" timeLoss="37.08" rerouteNo="0" devices="tripinfo_flow6.1" vType="vtypeauto" speedFactor="0.88" vaporized=""/>
    <tripinfo id="flow6.2" depart="11.20" departLane="D4D3_0" departPos="4.10" departSpeed="0.00" departDelay="5.20" arrival="74.90" arrivalLane="D1D0_1" arrivalPos="79.20" arrivalSpeed="12.68" duration="63.70" routeLength="375.10" waitingTime="21.90" waitingCount="1" stopTime="0.00" timeLoss="34.17" rerouteNo="0" devices="tripinfo_flow6.2" vType="vtypeauto" speedFactor="0.92" vaporized=""/>
    <tripinfo id="flow6.3" depart="16.80" departLane="D4D3_0" departPos="4.10" departSpeed="0.00" departDelay="7.80" arrival="76.40" arrivalLane="D1D0_1" arrivalPos="79.20" arrivalSpeed="13.40" duration="59.60" routeLength="375.10" waitingTime="17.80" waitingCount="1" stopTime="0.00" timeLoss="31.83" rerouteNo="0" devices="tripinfo_flow6.3" vType="vtypeauto" speedFactor="0.97" vaporized=""/>
    <tripinfo id="flow6.4" depart="22.40" departLane="D4D3_0" departPos="4.10" departSpeed="0.00" departDelay="10.40" arrival="78.00" arrivalLane="D1D0_1" arrivalPos="79.20" arrivalSpeed="13.85" duration="55.60" routeLength="375.10" waitingTime="13.40" waitingCount="1" stopTime="0.00" timeLoss="28.44" rerouteNo="0" devices="tripinfo_flow6.4" vType="vtypeauto" speedFactor="1.00" vaporized=""/>
    <tripinfo id="flow1.1" depart="3.00" departLane="A3B3_0" departPos="4.10" departSpeed="0.00" departDelay="0.00" arrival="79.70" arrivalLane="D3E3_1" arrivalPos="79.20" arrivalSpeed="14.22" duration="76.70" routeLength="375.10" waitingTime="36.90" waitingCount="2" stopTime="0.00" timeLoss="50.33" rerouteNo="0" devices="tripinfo_flow1.1" vType="vtypeauto" speedFactor="1.03" vaporized=""/>
    <tripinfo id="flow6.5" depart="28.00" departLane="D4D3_0" departPos="4.10" departSpeed="0.00" departDelay="13.00" arrival="79.90" arrivalLane="D1D0_1" arrivalPos="79.20" arrivalSpeed="12.40" duration="51.90" routeLength="375.10" waitingTime="8.30" waitingCount="1" stopTime="0.00" timeLoss="21.78" rerouteNo="0" devices="tripinfo_flow6.5" vType="vtypeauto" speedFactor="0.90" vaporized=""/>
    <tripinfo id="flow1.0" depart="0.00" departLane="A3B3_0" departPos="4.10" departSpeed="0.00" departDelay="0.00" arrival="80.00" arrivalLane="D3E3_0" arrivalPos="79.20" arrivalSpeed="12.98" duration="80.00" routeLength="375.10" waitingTime="39.70" waitingCount="2" stopTime="0.00" timeLoss="51.22" rerouteNo="0" devices="tripinfo_flow1.0" vType="vtypeauto" speedFactor="0.94" vaporized=""/>
    <tripinfo id="flow1.3" depart="9.00" departLane="A3B3_0" departPos="4.10" departSpeed="0.00" departDelay="0.00" arrival="81.10" arrivalLane="D3E3_1" arrivalPos="79.20" arrivalSpeed="16.00" duration="72.10" routeLength="375.10" waitingTime="29.10" waitingCount="1" stopTime="0.00" timeLoss="48.66" rerouteNo="0" devices="tripinfo_flow1.3" vType="vtypeauto" speedFactor="1.15" vaporized=""/>
    <tripinfo id="flow6.6" depart="33.50" departLane="D4D3_0" departPos="4.10" departSpeed="0.00" departDelay="15.50" arrival="81.50" arrivalLane="D1D0_1" arrivalPos="79.20" arrivalSpeed="12.48" duration="48.00" routeLength="375.10" waitingTime="4.10" waitingCount="1" stopTime="0.00" timeLoss="18.18" rerouteNo="0" devices="tripinfo_flow6.6" vType="vtypeauto" speedFactor="0.91" vaporized=""/>
    <tripinfo id="flow1.2" depart="6.00" departLane="A3B3_0" departPos="4.10" departSpeed="0.00" departDelay="0.00" arrival="81.60" arrivalLane="D3E3_0" arrivalPos="79.20" arrivalSpeed="13.93" duration="75.60" routeLength="375.10" waitingTime="29.00" waitingCount="1" stopTime="0.00" timeLoss="48.79" rerouteNo="0" devices="tripinfo_flow1.2" vType="vtypeauto" speedFactor="1.01" vaporized=""/>
    <tripinfo id="flow1.5" depart="15.00" departLane="A3B3_0" departPos="4.10" departSpeed="0.00" departDelay="0.00" arrival="82.50" arrivalLane="D3E3_1" arrivalPos="79.20" arrivalSpeed="16.14" duration="67.50" routeLength="375.10" waitingTime="27.30" waitingCount="1" stopTime="0.00" timeLoss="44.32" rerouteNo="0" devices="tripinfo_flow1.5" vType="vtypeauto" speedFactor="1.17" vaporized=""/>
    <tripinfo id="flow6.7" depart="39.10" departLane="D4D3_0" departPos="4.10" departSpeed="0.00" departDelay="18.10" arrival="83.00" arrivalLane="D1D0_1" arrivalPos="79.20" arrivalSpeed="14.26" duration="43.90" routeLength="375.10" waitingTime="0.00" waitingCount="0" stopTime="0.00" timeLoss="17.71" rerouteNo="0" devices="tripinfo_flow6.7" vType="vtypeauto" speedFactor="1.03" vaporized=""/>
    <tripinfo id="flow1.4" depart="12.00" departLane="A3B3_0" departPos="4.10" departSpeed="0.00" departDelay="0.00" arrival="83.20" arrivalLane="D3E3_0" arrivalPos="79.20" arrivalSpeed="13.28" duration="71.20" routeLength="375.10" waitingTime="27.20" waitingCount="1" stopTime="0.00" timeLoss="42.91" rerouteNo="0" devices="tripinfo_flow1.4" vType="vtypeauto" speedFactor="0.96" vaporized=""/>
    <tripinfo id="flow1.7" depart="21.00" departLane="A3B3_0" departPos="4.10" departSpeed="0.00" departDelay="0.00" arrival="84.30" arrivalLane="D3E3_1" arrivalPos="79.20" arrivalSpeed="13.40" duration="63.30" routeLength="375.10" waitingTime="22.20" waitingCount="1" stopTime="0.00" timeLoss="35.50" rerouteNo="0" devices="tripinfo_flow1.7" vType="vtypeauto" speedFactor="0.97" vaporized=""/>
    <tripinfo id="flow6.8" depart="44.60" departLane="D4D3_0" departPos="4.10" departSpeed="0.00" departDelay="20.60" arrival="84.50" arrivalLane="D1D0_1" arrivalPos="79.20" arrivalSpeed="13.80" duration="39.90" routeLength="375.10" waitingTime="0.00" waitingCount="0" stopTime="0.00" timeLoss="12.94" rerouteNo="0" devices="tripinfo_flow6.8" vType="vtypeauto" speedFactor="1.00" vaporized=""/>
    <tripinfo id="flow1.6" depart="18.00" departLane="A3B3_0" departPos="4.10" departSpeed="0.00" departDelay="0.00" arrival="84.60" arrivalLane="D3E3_0" arrivalPos="79.20" arrivalSpeed="15.50" duration="66.60" routeLength="375.10" waitingTime="25.70" waitingCount="1" stopTime="0.00" timeLoss="42.45" rerouteNo="0" devices="tripinfo_flow1.6" vType="vtypeauto" speedFactor="1.12" vaporized=""/>
    <tripinfo id="flow1.10" depart="30.00" departLane="A3B3_0" departPos="4.10" departSpeed="0.00" departDelay="0.00" arrival="85.90" arrivalLane="D3E3_1" arrivalPos="79.20" arrivalSpeed="13.28" duration="55.90" routeLength="375.10" waitingTime="10.00" waitingCount="2" stopTime="0.00" timeLoss="27.63" rerouteNo="0" devices="tripinfo_flow1.10" vType="vtypeauto" speedFactor="0.96" vaporized=""/>
    <tripinfo id="flow6.9" depart="50.20" departLane="D4D3_0" departPos="4.10" departSpeed="0.00" departDelay="23.20" arrival="86.10" arrivalLane="D1D0_1" arrivalPos="79.20" arrivalSpeed="13.97" duration="35.90" routeLength="375.10" waitingTime="0.00" waitingCount="0" stopTime="0.00" timeLoss="9.09" rerouteNo="0" devices="tripinfo_flow6.9" vType="vtypeauto" speedFactor="1.01" vaporized=""/>
    <tripinfo id="flow1.8" depart="24.00" departLane="A3B3_0" departPos="4.10" departSpeed="0.00" departDelay="0.00" arrival="86.20" arrivalLane="D3E3_0" arrivalPos="79.20" arrivalSpeed="13.82" duration="62.20" routeLength="375.10" waitingTime="21.20" waitingCount="1" stopTime="0.00" timeLoss="35.09" rerouteNo="0" devices="tripinfo_flow1.8" vType="vtypeauto" speedFactor="1.00" vaporized=""/>
    <tripinfo id="flow1.12" depart="36.00" departLane="A3B3_0" departPos="4.10" departSpeed="0.00" departDelay="0.00" arrival="87.40" arrivalLane="D3E3_1" arrivalPos="79.20" arrivalSpeed="15.26" duration="51.40" routeLength="375.10" waitingTime="3.40" waitingCount="1" stopTime="0.00" timeLoss="26.85" rerouteNo="0" devices="tripinfo_flow1.12" vType="vtypeauto" speedFactor="1.10" vaporized=""/>
    <tripinfo id="flow6.10" depart="55.80" departLane="D4D3_0" departPos="4.10" departSpeed="0.00" departDelay="25.80" arrival="87.60" arrivalLane="D1D0_1" arrivalPos="79.20" arrivalSpeed="14.07" duration="31.80" routeLength="375.10" waitingTime="0.00" waitingCount="0" stopTime="0.00" timeLoss="5.15" rerouteNo="0" devices="tripinfo_flow6.10" vType="vtypeauto" speedFactor="1.01" vaporized=""/>
    <tripinfo id="flow1.9" depart="27.00" departLane="A3B3_0" departPos="4.10" departSpeed="0.00" departDelay="0.00" arrival="88.10" arrivalLane="D3E3_0" arrivalPos="79.20" arrivalSpeed="12.37" duration="61.10" routeLength="375.10" waitingTime="13.80" waitingCount="2" stopTime="0.00" timeLoss="30.78" rerouteNo="0" devices="tripinfo_flow1.9" vType="vtypeauto" speedFactor="0.89" vaporized=""/>
    <tripinfo id="flow9.11" depart="33.00" departLane="A2B2_0" departPos="4.10" departSpeed="0.00" departDelay="0.00" arrival="88.50" arrivalLane="D2E2_0" arrivalPos="79.20" arrivalSpeed="14.80" duration="55.50" routeLength="375.10" waitingTime="21.20" waitingCount="1" stopTime="0.00" timeLoss="30.22" rerouteNo="0" devices="tripinfo_flow9.11" vType="vtypeauto" speedFactor="1.07" vaporized=""/>
    <tripinfo id="flow1.14" depart="42.00" departLane="A3B3_0" departPos="4.10" departSpeed="0.00" departDelay="0.00" arrival="88.80" arrivalLane="D3E3_1" arrivalPos="79.20" arrivalSpeed="16.12" duration="46.80" routeLength="375.10" waitingTime="2.00" waitingCount="1" stopTime="0.00" timeLoss="23.52" rerouteNo="0" devices="tripinfo_flow1.14" vType="vtypeauto" speedFactor="1.16" vaporized=""/>
    <tripinfo id="flow1.11" depart="33.00" departLane="A3B3_0" departPos="4.10" departSpeed="0.00" departDelay="0.00" arrival="89.90" arrivalLane="D3E3_0" arrivalPos="79.20" arrivalSpeed="12.01" duration="56.90" routeLength="375.10" waitingTime="4.50" waitingCount="1" stopTime="0.00" timeLoss="25.62" rerouteNo="0" devices="tripinfo_flow1.11" vType="vtypeauto" speedFactor="0.87" vaporized=""/>
    <tripinfo id="flow9.12" depart="36.00" departLane="A2B2_0" departPos="4.10" departSpeed="0.00" departDelay="0.00" arrival="90.10" arrivalLane="D2E2_0" arrivalPos="79.20" arrivalSpeed="13.94" duration="54.10" routeLength="375.10" waitingTime="15.30" waitingCount="1" stopTime="0.00" timeLoss="27.24" rerouteNo="0" devices="tripinfo_flow9.12" vType="vtypeauto" speedFactor="1.01" vaporized=""/>
    <tripinfo id="flow1.15" depart="45.00" departLane="A3B3_0" departPos="4.10" departSpeed="0.00" departDelay="0.00" arrival="90.40" arrivalLane="D3E3_1" arrivalPos="79.20" arrivalSpeed="13.89" duration="45.40" routeLength="375.10" waitingTime="0.00" waitingCount="0" stopTime="0.00" timeLoss="18.51" rerouteNo="0" devices="tripinfo_flow1.15" vType="vtypeauto" speedFactor="1.00" vaporized=""/>
    <tripinfo id="flow9.10" depart="30.00" departLane="A2B2_0" departPos="4.10" departSpeed="0.00" departDelay="0.00" arrival="90.60" arrivalLane="D2E2_0" arrivalPos="79.20" arrivalSpeed="2.64" duration="60.60" routeLength="375.10" waitingTime="23.20" waitingCount="1" stopTime="0.00" timeLoss="32.45" rerouteNo="0" devices="tripinfo_flow9.10" vType="vtypeauto" speedFactor="0.96" vaporized=""/>
    <tripinfo id="flow1.13" depart="39.00" departLane="A3B3_0" departPos="4.10" departSpeed="0.00" departDelay="0.00" arrival="91.40" arrivalLane="D3E3_0" arrivalPos="79.20" arrivalSpeed="14.78" duration="52.40" routeLength="375.10" waitingTime="3.30" waitingCount="1" stopTime="0.00" timeLoss="27.05" rerouteNo="0" devices="tripinfo_flow1.13" vType="vtypeauto" speedFactor="1.07" vaporized=""/>
    <tripinfo id="flow1.16" depart="48.00" departLane="A3B3_0" departPos="4.10" departSpeed="0.00" departDelay="0.00" arrival="91.90" arrivalLane="D3E3_1" arrivalPos="79.20" arrivalSpeed="14.85" duration="43.90" routeLength="375.10" waitingTime="1.40" waitingCount="1" stopTime="0.00" timeLoss="18.81" rerouteNo="0" devices="tripinfo_flow1.16" vType="vtypeauto" speedFactor="1.08" vaporized=""/>
    <tripinfo id="flow9.13" depart="39.00" departLane="A2B2_0" departPos="4.10" departSpeed="0.00" departDelay="0.00" arrival="93.90" arrivalLane="D2E2_1" arrivalPos="79.20" arrivalSpeed="0.85" duration="54.90" routeLength="375.10" waitingTime="10.80" waitingCount="1" stopTime="0.00" timeLoss="26.58" rerouteNo="0" devices="tripinfo_flow9.13" vType="vtypeauto" speedFactor="0.95" vaporized=""/>
    <tripinfo id="flow4.0" depart="1.30" departLane="C0C1_0" departPos="4.10" departSpeed="0.00" departDelay="1.30" arrival="95.60" arrivalLane="C3C4_0" arrivalPos="79.20" arrivalSpeed="14.31" duration="94.30" routeLength="375.10" waitingTime="50.80" waitingCount="3" stopTime="0.00" timeLoss="68.04" rerouteNo="0" devices="tripinfo_flow4.0" vType="vtypeauto" speedFactor="1.03" vaporized=""/>
    <tripinfo id="flow4.1" depart="4.10" departLane="C0C1_0" departPos="4.10" departSpeed="0.00" departDelay="1.10" arrival="95.80" arrivalLane="C3C4_0" arrivalPos="79.20" arrivalSpeed="13.69" duration="91.70" routeLength="375.10" waitingTime="44.20" waitingCount="2" stopTime="0.00" timeLoss="64.40" rerouteNo="0" devices="tripinfo_flow4.1" vType="vtypeauto" speedFactor="0.99" vaporized=""/>
    <tripinfo id="flow4.3" depart="9.90" departLane="C0C1_0" departPos="4.10" departSpeed="0.00" departDelay="0.90" arrival="97.30" arrivalLane="C3C4_1" arrivalPos="79.20" arrivalSpeed="13.76" duration="87.40" routeLength="375.10" waitingTime="34.10" waitingCount="2" stopTime="0.00" timeLoss="60.23" rerouteNo="0" devices="tripinfo_flow4.3" vType="vtypeauto" speedFactor="0.99" vaporized=""/>
    <tripinfo id="flow4.2" depart="7.00" departLane="C0C1_0" departPos="4.10" departSpeed="0.00" departDelay="1.00" arrival="98.10" arrivalLane="C3C4_0" arrivalPos="79.20" arrivalSpeed="11.44" duration="91.10" routeLength="375.10" waitingTime="34.70" waitingCount="2" stopTime="0.00" timeLoss="58.36" rerouteNo="0" devices="tripinfo_flow4.2" vType="vtypeauto" speedFactor="0.83" vaporized=""/>
    <tripinfo id="flow9.14" depart="42.00" departLane="A2B2_0" departPos="4.10" departSpeed="0.00" departDelay="0.00" arrival="104.60" arrivalLane="D2E2_0" arrivalPos="79.20" arrivalSpeed="14.34" duration="62.60" routeLength="375.10" waitingTime="20.30" waitingCount="2" stopTime="0.00" timeLoss="36.60" rerouteNo="0" devices="tripinfo_flow9.14" vType="vtypeauto" speedFactor="1.04" vaporized=""/>
    <tripinfo id="flow9.15" depart="45.00" departLane="A2B2_0" departPos="4.10" departSpeed="0.00" departDelay="0.00" arrival="105.00" arrivalLane="D2E2_1" arrivalPos="79.20" arrivalSpeed="8.06" duration="60.00" routeLength="375.10" waitingTime="17.60" waitingCount="2" stopTime="0.00" timeLoss="36.32" rerouteNo="0" devices="tripinfo_flow9.15" vType="vtypeauto" speedFactor="1.14" vaporized=""/>
    <tripinfo id="flow9.16" depart="48.00" departLane="A2B2_0" departPos="4.10" departSpeed="0.00" departDelay="0.00" arrival="109.70" arrivalLane="D2E2_0" arrivalPos="79.20" arrivalSpeed="12.97" duration="61.70" routeLength="375.10" waitingTime="25.50" waitingCount="1" stopTime="0.00" timeLoss="32.90" rerouteNo="0" devices="tripinfo_flow9.16" vType="vtypeauto" speedFactor="0.94" vaporized=""/>
    <tripinfo id="flow9.18" depart="54.00" departLane="A2B2_0" departPos="4.10" departSpeed="0.00" departDelay="0.00" arrival="110.70" arrivalLane="D2E2_1" arrivalPos="79.20" arrivalSpeed="13.39" duration="56.70" routeLength="375.10" waitingTime="12.50" waitingCount="2" stopTime="0.00" timeLoss="28.86" rerouteNo="0" devices="tripinfo_flow9.18" vType="vtypeauto" speedFactor="0.97" vaporized=""/>
    <tripinfo id="flow9.17" depart="51.00" departLane="A2B2_0" departPos="4.10" departSpeed="0.00" departDelay="0.00" arrival="111.30" arrivalLane="D2E2_0" arrivalPos="79.20" arrivalSpeed="14.76" duration="60.30" routeLength="375.10" waitingTime="17.00" waitingCount="2" stopTime="0.00" timeLoss="34.87" rerouteNo="0" devices="tripinfo_flow9.17" vType="vtypeauto" speedFactor="1.06" vaporized=""/>
    <tripinfo id="flow4.4" depart="12.80" departLane="C0C1_0" departPos="4.10" departSpeed="0.00" departDelay="0.80" arrival="111.60" arrivalLane="C3C4_0" arrivalPos="79.20" arrivalSpeed="14.47" duration="98.80" routeLength="375.10" waitingTime="41.10" waitingCount="3" stopTime="0.00" timeLoss="72.91" rerouteNo="0" devices="tripinfo_flow4.4" vType="vtypeauto" speedFactor="1.04" vaporized=""/>
    <tripinfo id="flow4.5" depart="15.70" departLane="C0C1_0" departPos="4.10" departSpeed="0.00" departDelay="0.70" arrival="111.80" arrivalLane="C3C4_0" arrivalPos="79.20" arrivalSpeed="13.83" duration="96.10" routeLength="375.10" waitingTime="40.10" waitingCount="3" stopTime="0.00" timeLoss="69.13" rerouteNo="0" devices="tripinfo_flow4.5" vType="vtypeauto" speedFactor="1.00" vaporized=""/>
    <tripinfo id="flow9.20" depart="60.00" departLane="A2B2_0" departPos="4.10" departSpeed="0.00" departDelay="0.00" arrival="112.30" arrivalLane="D2E2_1" arrivalPos="79.20" arrivalSpeed="13.59" duration="52.30" routeLength="375.10" waitingTime="5.90" waitingCount="1" stopTime="0.00" timeLoss="24.82" rerouteNo="0" devices="tripinfo_flow9.20" vType="vtypeauto" speedFactor="0.98" vaporized=""/>
    <tripinfo id="flow2.0" depart="0.00" departLane="A0A1_0" departPos="4.10" departSpeed="0.00" departDelay="0.00" arrival="112.80" arrivalLane="C3D3_0" arrivalPos="79.20" arrivalSpeed="13.96" duration="112.80" routeLength="540.89" waitingTime="48.50" waitingCount="3" stopTime="0.00" timeLoss="70.70" rerouteNo="0" devices="tripinfo_flow2.0" vType="vtypeauto" speedFactor="1.01" vaporized=""/>
    <tripinfo id="flow9.22" depart="66.00" departLane="A2B2_0" departPos="4.10" departSpeed="0.00" departDelay="0.00" arrival="113.90" arrivalLane="D2E2_1" arrivalPos="79.20" arrivalSpeed="13.81" duration="47.90" routeLength="375.10" waitingTime="4.50" waitingCount="1" stopTime="0.00" timeLoss="20.68" rerouteNo="0" devices="tripinfo_flow9.22" vType="vtypeauto" speedFactor="0.99" vaporized=""/>
    <tripinfo id="flow9.23" depart="69.00" departLane="A2B2_0" departPos="4.10" departSpeed="0.00" departDelay="0.00" arrival="115.30" arrivalLane="D2E2_1" arrivalPos="79.20" arrivalSpeed="15.66" duration="46.30" routeLength="375.10" waitingTime="3.30" waitingCount="1" stopTime="0.00" timeLoss="22.33" rerouteNo="0" devices="tripinfo_flow9.23" vType="vtypeauto" speedFactor="1.13" vaporized=""/>
    <tripinfo id="flow9.19" depart="57.00" departLane="A2B2_0" departPos="4.10" departSpeed="0.00" departDelay="0.00" arrival="116.00" arrivalLane="D2E2_0" arrivalPos="79.20" arrivalSpeed="11.39" duration="59.00" routeLength="375.10" waitingTime="7.10" waitingCount="1" stopTime="0.00" timeLoss="26.37" rerouteNo="0" devices="tripinfo_flow9.19" vType="vtypeauto" speedFactor="0.83" vaporized=""/>
    <tripinfo id="flow9.26" depart="78.00" departLane="A2B2_0" departPos="4.10" departSpeed="0.00" departDelay="0.00" arrival="116.70" arrivalLane="D2E2_1" arrivalPos="79.20" arrivalSpeed="17.51" duration="38.70" routeLength="375.10" waitingTime="0.00" waitingCount="0" stopTime="0.00" timeLoss="17.24" rerouteNo="0" devices="tripinfo_flow9.26" vType="vtypeauto" speedFactor="1.26" vaporized=""/>
    <tripinfo id="flow9.21" depart="63.00" departLane="A2B2_0" departPos="4.10" departSpeed="0.00" departDelay="0.00" arrival="117.60" arrivalLane="D2E2_0" arrivalPos="79.20" arrivalSpeed="12.58" duration="54.60" routeLength="375.10" waitingTime="5.70" waitingCount="1" stopTime="0.00" timeLoss="24.91" rerouteNo="0" devices="tripinfo_flow9.21" vType="vtypeauto" speedFactor="0.91" vaporized=""/>
    <tripinfo id="flow9.27" depart="81.00" departLane="A2B2_0" departPos="4.10" departSpeed="0.00" departDelay="0.00" arrival="118.70" arrivalLane="D2E2_1" arrivalPos="79.20" arrivalSpeed="13.44" duration="37.70" routeLength="375.10" waitingTime="0.00" waitingCount="0" stopTime="0.00" timeLoss="9.79" rerouteNo="0" devices="tripinfo_flow9.27" vType="vtypeauto" speedFactor="0.97" vaporized=""/>
    <tripinfo id="flow9.24" depart="72.00" departLane="A2B2_0" departPos="4.10" departSpeed="0.00" departDelay="0.00" arrival="119.10" arrivalLane="D2E2_0" arrivalPos="79.20" arrivalSpeed="15.07" duration="47.10" routeLength="375.10" waitingTime="3.60" waitingCount="1" stopTime="0.00" timeLoss="22.75" rerouteNo="0" devices="tripinfo_flow9.24" vType="vtypeauto" speedFactor="1.11" vaporized=""/>
    <tripinfo id="flow9.29" depart="87.00" departLane="A2B2_0" departPos="4.10" departSpeed="0.00" departDelay="0.00" arrival="120.20" arrivalLane="D2E2_1" arrivalPos="79.20" arrivalSpeed="16.00" duration="33.20" routeLength="375.10" waitingTime="0.00" waitingCount="0" stopTime="0.00" timeLoss="9.78" rerouteNo="0" devices="tripinfo_flow9.29" vType="vtypeauto" speedFactor="1.16" vaporized=""/>
    <tripinfo id="flow9.25" depart="75.00" departLane="A2B2_0" departPos="4.10" departSpeed="0.00" departDelay="0.00" arrival="121.10" arrivalLane="D2E2_0" arrivalPos="79.20" arrivalSpeed="11.52" duration="46.10" routeLength="375.10" waitingTime="0.00" waitingCount="0" stopTime="0.00" timeLoss="13.79" rerouteNo="0" devices="tripinfo_flow9.25" vType="vtypeauto" speedFactor="0.84" vaporized=""/>
    <tripinfo id="flow9.30" depart="90.00" departLane="A2B2_0" departPos="4.10" departSpeed="0.00" departDelay="0.00" arrival="121.70" arrivalLane="D2E2_1" arrivalPos="79.20" arrivalSpeed="14.55" duration="31.70" routeLength="375.10" waitingTime="0.00" waitingCount="0" stopTime="0.00" timeLoss="5.89" rerouteNo="0" devices="tripinfo_flow9.30" vType="vtypeauto" speedFactor="1.05" vaporized=""/>
    <tripinfo id="flow9.28" depart="84.00" departLane="A2B2_0" departPos="4.10" departSpeed="0.00" departDelay="0.00" arrival="122.60" arrivalLane="D2E2_0" arrivalPos="79.20" arrivalSpeed="14.37" duration="38.60" routeLength="375.10" waitingTime="0.00" waitingCount="0" stopTime="0.00" timeLoss="15.98" rerouteNo="0" devices="tripinfo_flow9.28" vType="vtypeauto" speedFactor="1.19" vaporized=""/>
    <tripinfo id="flow9.31" depart="93.00" departLane="A2B2_0" departPos="4.10" departSpeed="0.00" departDelay="0.00" arrival="124.00" arrivalLane="D2E2_0" arrivalPos="79.20" arrivalSpeed="15.66" duration="31.00" routeLength="375.10" waitingTime="0.00" waitingCount="0" stopTime="0.00" timeLoss="7.18" rerouteNo="0" devices="tripinfo_flow9.31" vType="vtypeauto" speedFactor="1.13" vaporized=""/>
    <tripinfo id="flow6.11" depart="61.50" departLane="D4D3_0" departPos="4.10" departSpeed="0.00" departDelay="28.50" arrival="137.50" arrivalLane="D1D0_1" arrivalPos="79.20" arrivalSpeed="16.29" duration="76.00" routeLength="375.10" waitingTime="38.20" waitingCount="2" stopTime="0.00" timeLoss="53.05" rerouteNo="0" devices="tripinfo_flow6.11" vType="vtypeauto" speedFactor="1.18" vaporized=""/>
    <tripinfo id="flow8.0" depart="2.80" departLane="D4D3_0" departPos="4.10" departSpeed="0.00" departDelay="2.80" arrival="137.70" arrivalLane="B1A1_0" arrivalPos="79.20" arrivalSpeed="12.99" duration="134.90" routeLength="563.33" waitingTime="65.20" waitingCount="3" stopTime="0.00" timeLoss="90.87" rerouteNo="0" devices="tripinfo_flow8.0" vType="vtypeauto" speedFactor="0.94" vaporized=""/>
    <tripinfo id="flow8.2" depart="14.00" departLane="D4D3_0" departPos="4.10" departSpeed="0.00" departDelay="8.00" arrival="138.90" arrivalLane="B1A1_1" arrivalPos="79.20" arrivalSpeed="4.78" duration="124.90" routeLength="563.33" waitingTime="54.80" waitingCount="2" stopTime="0.00" timeLoss="88.38" rerouteNo="0" devices="tripinfo_flow8.2" vType="vtypeauto" speedFactor="1.13" vaporized=""/>
    <tripinfo id="flow6.12" depart="67.10" departLane="D4D3_0" departPos="4.10" departSpeed="0.00" departDelay="31.10" arrival="140.10" arrivalLane="D1D0_1" arrivalPos="79.20" arrivalSpeed="14.27" duration="73.00" routeLength="375.10" waitingTime="25.40" waitingCount="2" stopTime="0.00" timeLoss="46.80" rerouteNo="0" devices="tripinfo_flow6.12" vType="vtypeauto" speedFactor="1.03" vaporized=""/>
    <tripinfo id="flow6.13" depart="72.70" departLane="D4D3_0" departPos="4.10" departSpeed="0.00" departDelay="33.70" arrival="141.60" arrivalLane="D1D0_1" arrivalPos="79.20" arrivalSpeed="15.45" duration="68.90" routeLength="375.10" waitingTime="19.20" waitingCount="2" stopTime="0.00" timeLoss="44.72" rerouteNo="0" devices="tripinfo_flow6.13" vType="vtypeauto" speedFactor="1.12" vaporized=""/>
    <tripinfo id="flow8.4" depart="25.20" departLane="D4D3_0" departPos="4.10" departSpeed="0.00" departDelay="13.20" arrival="142.80" arrivalLane="B1A1_1" arrivalPos="79.20" arrivalSpeed="2.27" duration="117.60" routeLength="563.33" waitingTime="44.00" waitingCount="2" stopTime="0.00" timeLoss="70.50" rerouteNo="0" devices="tripinfo_flow8.4" vType="vtypeauto" speedFactor="0.88" vaporized=""/>