<?xml version="1.0" encoding="UTF-8"?>

<!-- generated on 2024-10-06 16:37:56 by Eclipse SUMO GUI Version 1.20.0
<configuration xmlns:xsi="http://www.w3.org/2001/XMLSchema-instance" xsi:noNamespaceSchemaLocation="http://sumo.dlr.de/xsd/sumoConfiguration.xsd">

    <input>
        <net-file value="sim_cfg_grid_2_lanes/grid.net.xml"/>
        <route-files value="sim_cfg_grid_2_lanes/grid.rou.xml"/>
    </input>

    <output>
        <tripinfo-output value="sim_cfg_grid_2_lanes/tripinfo2.xml"/>
    </output>

    <time>
        <begin value="0"/>
        <end value="500"/>
        <step-length value="0.1"/>
    </time>

    <traci_server>
        <remote-port value="49290"/>
    </traci_server>

    <gui_only>
        <gui-settings-file value="sim_cfg_grid_2_lanes/gui_settings.xml"/>
    </gui_only>

</configuration>
-->

<tripinfos xmlns:xsi="http://www.w3.org/2001/XMLSchema-instance" xsi:noNamespaceSchemaLocation="http://sumo.dlr.de/xsd/tripinfo_file.xsd">
    <tripinfo id="flow1.0" depart="0.00" departLane="A3B3_0" departPos="4.10" departSpeed="0.00" departDelay="0.00" arrival="51.10" arrivalLane="D3E3_0" arrivalPos="79.20" arrivalSpeed="13.02" duration="51.10" routeLength="375.10" waitingTime="10.70" waitingCount="2" stopTime="0.00" timeLoss="22.27" rerouteNo="0" devices="tripinfo_flow1.0" vType="vtypeauto" speedFactor="0.94" vaporized=""/>
    <tripinfo id="flow1.1" depart="2.70" departLane="A3B3_0" departPos="4.10" departSpeed="0.00" departDelay="1.70" arrival="51.50" arrivalLane="D3E3_1" arrivalPos="79.20" arrivalSpeed="11.53" duration="48.80" routeLength="375.10" waitingTime="5.60" waitingCount="2" stopTime="0.00" timeLoss="16.31" rerouteNo="0" devices="tripinfo_flow1.1" vType="vtypeauto" speedFactor="0.83" vaporized=""/>
    <tripinfo id="flow1.2" depart="5.40" departLane="A3B3_0" departPos="4.10" departSpeed="0.00" departDelay="3.40" arrival="53.00" arrivalLane="D3E3_0" arrivalPos="79.20" arrivalSpeed="11.78" duration="47.60" routeLength="375.10" waitingTime="0.00" waitingCount="0" stopTime="0.00" timeLoss="16.06" rerouteNo="0" devices="tripinfo_flow1.2" vType="vtypeauto" speedFactor="0.86" vaporized=""/>
    <tripinfo id="flow1.3" depart="8.20" departLane="A3B3_0" departPos="4.10" departSpeed="0.00" departDelay="5.20" arrival="53.00" arrivalLane="D3E3_1" arrivalPos="79.20" arrivalSpeed="14.20" duration="44.80" routeLength="375.10" waitingTime="0.00" waitingCount="0" stopTime="0.00" timeLoss="20.75" rerouteNo="0" devices="tripinfo_flow1.3" vType="vtypeauto" speedFactor="1.12" vaporized=""/>
    <tripinfo id="flow1.5" depart="13.70" departLane="A3B3_0" departPos="4.10" departSpeed="0.00" departDelay="8.70" arrival="66.70" arrivalLane="D3E3_1" arrivalPos="79.20" arrivalSpeed="14.02" duration="53.00" routeLength="375.10" waitingTime="10.10" waitingCount="1" stopTime="0.00" timeLoss="26.25" rerouteNo="0" devices="tripinfo_flow1.5" vType="vtypeauto" speedFactor="1.01" vaporized=""/>
    <tripinfo id="flow1.4" depart="11.00" departLane="A3B3_0" departPos="4.10" departSpeed="0.00" departDelay="7.00" arrival="67.10" arrivalLane="D3E3_0" arrivalPos="79.20" arrivalSpeed="13.05" duration="56.10" routeLength="375.10" waitingTime="10.00" waitingCount="1" stopTime="0.00" timeLoss="27.34" rerouteNo="0" devices="tripinfo_flow1.4" vType="vtypeauto" speedFactor="0.94" vaporized=""/>
    <tripinfo id="flow1.8" depart="22.10" departLane="A3B3_0" departPos="4.10" departSpeed="0.00" departDelay="14.10" arrival="68.20" arrivalLane="D3E3_1" arrivalPos="79.20" arrivalSpeed="16.15" duration="46.10" routeLength="375.10" waitingTime="4.30" waitingCount="1" stopTime="0.00" timeLoss="22.97" rerouteNo="0" devices="tripinfo_flow1.8" vType="vtypeauto" speedFactor="1.17" vaporized=""/>
    <tripinfo id="flow1.6" depart="16.50" departLane="A3B3_0" departPos="4.10" departSpeed="0.00" departDelay="10.50" arrival="68.90" arrivalLane="D3E3_0" arrivalPos="79.20" arrivalSpeed="12.03" duration="52.40" routeLength="375.10" waitingTime="8.20" waitingCount="1" stopTime="0.00" timeLoss="21.40" rerouteNo="0" devices="tripinfo_flow1.6" vType="vtypeauto" speedFactor="0.87" vaporized=""/>
    <tripinfo id="flow1.9" depart="24.90" departLane="A3B3_0" departPos="4.10" departSpeed="0.00" departDelay="15.90" arrival="69.50" arrivalLane="D3E3_1" arrivalPos="79.20" arrivalSpeed="16.26" duration="44.60" routeLength="375.10" waitingTime="0.00" waitingCount="0" stopTime="0.00" timeLoss="21.69" rerouteNo="0" devices="tripinfo_flow1.9" vType="vtypeauto" speedFactor="1.18" vaporized=""/>
    <tripinfo id="flow1.7" depart="19.30" departLane="A3B3_0" departPos="4.10" departSpeed="0.00" departDelay="12.30" arrival="70.50" arrivalLane="D3E3_0" arrivalPos="79.20" arrivalSpeed="12.84" duration="51.20" routeLength="375.10" waitingTime="3.30" waitingCount="1" stopTime="0.00" timeLoss="22.12" rerouteNo="0" devices="tripinfo_flow1.7" vType="vtypeauto" speedFactor="0.93" vaporized=""/>
    <tripinfo id="flow1.11" depart="30.50" departLane="A3B3_0" departPos="4.10" departSpeed="0.00" departDelay="19.50" arrival="71.00" arrivalLane="D3E3_1" arrivalPos="79.20" arrivalSpeed="15.01" duration="40.50" routeLength="375.10" waitingTime="0.00" waitingCount="0" stopTime="0.00" timeLoss="15.66" rerouteNo="0" devices="tripinfo_flow1.11" vType="vtypeauto" speedFactor="1.09" vaporized=""/>
    <tripinfo id="flow2.0" depart="0.00" departLane="A0A1_0" departPos="4.10" departSpeed="0.00" departDelay="0.00" arrival="71.80" arrivalLane="C3D3_0" arrivalPos="79.20" arrivalSpeed="14.03" duration="71.80" routeLength="540.89" waitingTime="13.60" waitingCount="2" stopTime="0.00" timeLoss="29.75" rerouteNo="0" devices="tripinfo_flow2.0" vType="vtypeauto" speedFactor="1.01" vaporized=""/>
    <tripinfo id="flow1.10" depart="27.70" departLane="A3B3_0" departPos="4.10" departSpeed="0.00" departDelay="17.70" arrival="72.00" arrivalLane="D3E3_0" arrivalPos="79.20" arrivalSpeed="13.26" duration="44.30" routeLength="375.10" waitingTime="0.00" waitingCount="0" stopTime="0.00" timeLoss="16.04" rerouteNo="0" devices="tripinfo_flow1.10" vType="vtypeauto" speedFactor="0.96" vaporized=""/>
    <tripinfo id="flow1.13" depart="36.20" departLane="A3B3_0" departPos="4.10" departSpeed="0.00" departDelay="23.20" arrival="72.50" arrivalLane="D3E3_1" arrivalPos="79.20" arrivalSpeed="15.11" duration="36.30" routeLength="375.10" waitingTime="0.00" waitingCount="0" stopTime="0.00" timeLoss="11.60" rerouteNo="0" devices="tripinfo_flow1.13" vType="vtypeauto" speedFactor="1.10" vaporized=""/>
    <tripinfo id="flow2.1" depart="2.80" departLane="A0A1_0" departPos="4.10" departSpeed="0.00" departDelay="1.80" arrival="73.50" arrivalLane="C3D3_0" arrivalPos="79.20" arrivalSpeed="14.52" duration="70.70" routeLength="540.89" waitingTime="3.10" waitingCount="1" stopTime="0.00" timeLoss="30.00" rerouteNo="0" devices="tripinfo_flow2.1" vType="vtypeauto" speedFactor="1.05" vaporized=""/>
    <tripinfo id="flow1.12" depart="33.40" departLane="A3B3_0" departPos="4.10" departSpeed="0.00" departDelay="21.40" arrival="73.90" arrivalLane="D3E3_0" arrivalPos="79.20" arrivalSpeed="11.69" duration="40.50" routeLength="375.10" waitingTime="0.00" waitingCount="0" stopTime="0.00" timeLoss="8.69" rerouteNo="0" devices="tripinfo_flow1.12" vType="vtypeauto" speedFactor="0.85" vaporized=""/>
    <tripinfo id="flow1.15" depart="41.80" departLane="A3B3_0" departPos="4.10" departSpeed="0.00" departDelay="26.80" arrival="73.90" arrivalLane="D3E3_1" arrivalPos="79.20" arrivalSpeed="15.43" duration="32.10" routeLength="375.10" waitingTime="0.00" waitingCount="0" stopTime="0.00" timeLoss="7.97" rerouteNo="0" devices="tripinfo_flow1.15" vType="vtypeauto" speedFactor="1.12" vaporized=""/>
    <tripinfo id="flow2.2" depart="5.60" departLane="A0A1_0" departPos="4.10" departSpeed="0.00" departDelay="3.60" arrival="75.40" arrivalLane="C3D3_0" arrivalPos="79.20" arrivalSpeed="15.10" duration="69.80" routeLength="540.89" waitingTime="0.00" waitingCount="0" stopTime="0.00" timeLoss="30.77" rerouteNo="0" devices="tripinfo_flow2.2" vType="vtypeauto" speedFactor="1.09" vaporized=""/>
    <tripinfo id="flow1.14" depart="39.00" departLane="A3B3_0" departPos="4.10" departSpeed="0.00" departDelay="25.00" arrival="75.40" arrivalLane="D3E3_0" arrivalPos="79.20" arrivalSpeed="14.31" duration="36.40" routeLength="375.10" waitingTime="0.00" waitingCount="0" stopTime="0.00" timeLoss="12.73" rerouteNo="0" devices="tripinfo_flow1.14" vType="vtypeauto" speedFactor="1.14" vaporized=""/>
    <tripinfo id="flow2.3" depart="8.40" departLane="A0A1_0" departPos="4.10" departSpeed="0.00" departDelay="5.40" arrival="78.00" arrivalLane="C3D3_0" arrivalPos="79.20" arrivalSpeed="13.74" duration="69.60" routeLength="540.89" waitingTime="0.00" waitingCount="0" stopTime="0.00" timeLoss="26.53" rerouteNo="0" devices="tripinfo_flow2.3" vType="vtypeauto" speedFactor="0.99" vaporized=""/>
    <tripinfo id="flow2.4" depart="11.20" departLane="A0A1_0" departPos="4.10" departSpeed="0.00" departDelay="7.20" arrival="80.60" arrivalLane="C3D3_0" arrivalPos="79.20" arrivalSpeed="12.94" duration="69.40" routeLength="540.89" waitingTime="0.00" waitingCount="0" stopTime="0.00" timeLoss="23.93" rerouteNo="0" devices="tripinfo_flow2.4" vType="vtypeauto" speedFactor="0.94" vaporized=""/>
    <tripinfo id="flow2.5" depart="14.00" departLane="A0A1_0" departPos="4.10" departSpeed="0.00" departDelay="9.00" arrival="82.60" arrivalLane="C3D3_0" arrivalPos="79.20" arrivalSpeed="13.43" duration="68.60" routeLength="540.89" waitingTime="0.00" waitingCount="0" stopTime="0.00" timeLoss="24.97" rerouteNo="0" devices="tripinfo_flow2.5" vType="vtypeauto" speedFactor="0.97" vaporized=""/>
    <tripinfo id="flow2.6" depart="16.70" departLane="A0A1_0" departPos="4.10" departSpeed="0.00" departDelay="10.70" arrival="85.20" arrivalLane="C3D3_0" arrivalPos="79.20" arrivalSpeed="12.67" duration="68.50" routeLength="540.89" waitingTime="0.00" waitingCount="0" stopTime="0.00" timeLoss="22.13" rerouteNo="0" devices="tripinfo_flow2.6" vType="vtypeauto" speedFactor="0.92" vaporized=""/>
    <tripinfo id="flow2.7" depart="19.50" departLane="A0A1_0" departPos="4.10" departSpeed="0.00" departDelay="12.50" arrival="86.70" arrivalLane="C3D3_0" arrivalPos="79.20" arrivalSpeed="15.52" duration="67.20" routeLength="540.89" waitingTime="0.00" waitingCount="0" stopTime="0.00" timeLoss="31.08" rerouteNo="0" devices="tripinfo_flow2.7" vType="vtypeauto" speedFactor="1.18" vaporized=""/>
    <tripinfo id="flow2.8" depart="22.30" departLane="A0A1_0" departPos="4.10" departSpeed="0.00" departDelay="14.30" arrival="89.00" arrivalLane="C3D3_0" arrivalPos="79.20" arrivalSpeed="13.73" duration="66.70" routeLength="540.89" waitingTime="0.00" waitingCount="0" stopTime="0.00" timeLoss="23.95" rerouteNo="0" devices="tripinfo_flow2.8" vType="vtypeauto" speedFactor="0.99" vaporized=""/>
    <tripinfo id="flow2.9" depart="25.10" departLane="A0A1_0" departPos="4.10" departSpeed="0.00" departDelay="16.10" arrival="90.70" arrivalLane="C3D3_0" arrivalPos="79.20" arrivalSpeed="15.28" duration="65.60" routeLength="540.89" waitingTime="0.00" waitingCount="0" stopTime="0.00" timeLoss="26.93" rerouteNo="0" devices="tripinfo_flow2.9" vType="vtypeauto" speedFactor="1.10" vaporized=""/>
    <tripinfo id="flow2.10" depart="27.90" departLane="A0A1_0" departPos="4.10" departSpeed="0.00" departDelay="17.90" arrival="92.90" arrivalLane="C3D3_0" arrivalPos="79.20" arrivalSpeed="15.09" duration="65.00" routeLength="540.89" waitingTime="0.10" waitingCount="1" stopTime="0.00" timeLoss="26.04" rerouteNo="0" devices="tripinfo_flow2.10" vType="vtypeauto" speedFactor="1.09" vaporized=""/>
    <tripinfo id="flow2.11" depart="30.70" departLane="A0A1_0" departPos="4.10" departSpeed="0.00" departDelay="19.70" arrival="95.70" arrivalLane="C3D3_0" arrivalPos="79.20" arrivalSpeed="13.81" duration="65.00" routeLength="540.89" waitingTime="0.00" waitingCount="0" stopTime="0.00" timeLoss="22.37" rerouteNo="0" devices="tripinfo_flow2.11" vType="vtypeauto" speedFactor="1.00" vaporized=""/>
    <tripinfo id="flow3.0" depart="0.00" departLane="C0C1_0" departPos="4.10" departSpeed="0.00" departDelay="0.00" arrival="105.90" arrivalLane="D4E4_0" arrivalPos="83.20" arrivalSpeed="14.93" duration="105.90" routeLength="1101.23" waitingTime="6.40" waitingCount="1" stopTime="0.00" timeLoss="25.57" rerouteNo="0" devices="tripinfo_flow3.0" vType="vtypeauto" speedFactor="1.08" vaporized=""/>
    <tripinfo id="flow0.0" depart="0.00" departLane="B4B3_0" departPos="4.10" departSpeed="0.00" departDelay="0.00" arrival="109.60" arrivalLane="B3A3_1" arrivalPos="79.20" arrivalSpeed="14.69" duration="109.60" routeLength="570.75" waitingTime="53.20" waitingCount="2" stopTime="0.00" timeLoss="68.78" rerouteNo="0" devices="tripinfo_flow0.0" vType="vtypeauto" speedFactor="1.06" vaporized=""/>
    <tripinfo id="flow0.8" depart="14.40" departLane="B4B3_0" departPos="4.10" departSpeed="0.00" departDelay="6.40" arrival="111.20" arrivalLane="B3A3_1" arrivalPos="79.20" arrivalSpeed="13.93" duration="96.80" routeLength="570.75" waitingTime="37.30" waitingCount="2" stopTime="0.00" timeLoss="53.77" rerouteNo="0" devices="tripinfo_flow0.8" vType="vtypeauto" speedFactor="1.01" vaporized=""/>
    <tripinfo id="flow2.12" depart="33.40" departLane="A0A1_0" departPos="4.10" departSpeed="0.00" departDelay="21.40" arrival="114.60" arrivalLane="C3D3_0" arrivalPos="79.20" arrivalSpeed="11.78" duration="81.20" routeLength="540.89" waitingTime="12.40" waitingCount="2" stopTime="0.00" timeLoss="31.42" rerouteNo="0" devices="tripinfo_flow2.12" vType="vtypeauto" speedFactor="0.85" vaporized=""/>
    <tripinfo id="flow2.13" depart="36.20" departLane="A0A1_0" departPos="4.10" departSpeed="0.00" departDelay="23.20" arrival="116.20" arrivalLane="C3D3_0" arrivalPos="79.20" arrivalSpeed="13.81" duration="80.00" routeLength="540.89" waitingTime="4.50" waitingCount="2" stopTime="0.00" timeLoss="37.53" rerouteNo="0" devices="tripinfo_flow2.13" vType="vtypeauto" speedFactor="1.00" vaporized=""/>
    <tripinfo id="flow1.17" depart="47.40" departLane="A3B3_0" departPos="4.10" departSpeed="0.00" departDelay="30.40" arrival="119.70" arrivalLane="D3E3_1" arrivalPos="79.20" arrivalSpeed="14.12" duration="72.30" routeLength="375.10" waitingTime="32.90" waitingCount="2" stopTime="0.00" timeLoss="45.84" rerouteNo="0" devices="tripinfo_flow1.17" vType="vtypeauto" speedFactor="1.02" vaporized=""/>
    <tripinfo id="flow1.16" depart="44.60" departLane="A3B3_0" departPos="4.10" departSpeed="0.00" departDelay="28.60" arrival="120.30" arrivalLane="D3E3_0" arrivalPos="79.20" arrivalSpeed="12.22" duration="75.70" routeLength="375.10" waitingTime="34.00" waitingCount="2" stopTime="0.00" timeLoss="45.10" rerouteNo="0" devices="tripinfo_flow1.16" vType="vtypeauto" speedFactor="0.88" vaporized=""/>
    <tripinfo id="flow0.9" depart="17.30" departLane="B4B3_0" departPos="4.10" departSpeed="0.00" departDelay="8.30" arrival="121.90" arrivalLane="B3A3_1" arrivalPos="79.20" arrivalSpeed="13.40" duration="104.60" routeLength="570.75" waitingTime="37.40" waitingCount="3" stopTime="0.00" timeLoss="60.24" rerouteNo="0" devices="tripinfo_flow0.9" vType="vtypeauto" speedFactor="0.97" vaporized=""/>
    <tripinfo id="flow3.1" depart="1.30" departLane="C0C1_0" departPos="4.10" departSpeed="0.00" departDelay="0.30" arrival="129.80" arrivalLane="D4E4_0" arrivalPos="83.20" arrivalSpeed="12.28" duration="128.50" routeLength="1101.23" waitingTime="4.10" waitingCount="2" stopTime="0.00" timeLoss="30.14" rerouteNo="0" devices="tripinfo_flow3.1" vType="vtypeauto" speedFactor="0.89" vaporized=""/>
    <tripinfo id="flow1.18" depart="50.10" departLane="A3B3_0" departPos="4.10" departSpeed="0.00" departDelay="32.10" arrival="139.50" arrivalLane="D3E3_0" arrivalPos="79.20" arrivalSpeed="14.57" duration="89.40" routeLength="375.10" waitingTime="46.20" waitingCount="3" stopTime="0.00" timeLoss="63.76" rerouteNo="0" devices="tripinfo_flow1.18" vType="vtypeauto" speedFactor="1.06" vaporized=""/>
    <tripinfo id="flow1.19" depart="52.90" departLane="A3B3_0" departPos="4.10" departSpeed="0.00" departDelay="33.90" arrival="139.80" arrivalLane="D3E3_1" arrivalPos="79.20" arrivalSpeed="13.58" duration="86.90" routeLength="375.10" waitingTime="42.60" waitingCount="3" stopTime="0.00" timeLoss="59.31" rerouteNo="0" devices="tripinfo_flow1.19" vType="vtypeauto" speedFactor="0.98" vaporized=""/>
    <tripinfo id="flow1.20" depart="55.70" departLane="A3B3_0" departPos="4.10" departSpeed="0.00" departDelay="35.70" arrival="141.20" arrivalLane="D3E3_0" arrivalPos="79.20" arrivalSpeed="13.80" duration="85.50" routeLength="375.10" waitingTime="31.90" waitingCount="2" stopTime="0.00" timeLoss="58.39" rerouteNo="0" devices="tripinfo_flow1.20" vType="vtypeauto" speedFactor="1.00" vaporized=""/>
    <tripinfo id="flow1.21" depart="58.50" departLane="A3B3_0" departPos="4.10" departSpeed="0.00" departDelay="37.50" arrival="141.30" arrivalLane="D3E3_1" arrivalPos="79.20" arrivalSpeed="13.46" duration="82.80" routeLength="375.10" waitingTime="28.60" waitingCount="2" stopTime="0.00" timeLoss="55.10" rerouteNo="0" devices="tripinfo_flow1.21" vType="vtypeauto" speedFactor="0.98" vaporized=""/>
    <tripinfo id="flow1.22" depart="61.30" departLane="A3B3_0" departPos="4.10" departSpeed="0.00" departDelay="39.30" arrival="142.70" arrivalLane="D3E3_0" arrivalPos="79.20" arrivalSpeed="14.16" duration="81.40" routeLength="375.10" waitingTime="26.20" waitingCount="1" stopTime="0.00" timeLoss="54.93" rerouteNo="0" devices="tripinfo_flow1.22" vType="vtypeauto" speedFactor="1.02" vaporized=""/>
    <tripinfo id="flow1.23" depart="64.00" departLane="A3B3_0" departPos="4.10" departSpeed="0.00" departDelay="41.00" arrival="143.00" arrivalLane="D3E3_1" arrivalPos="79.20" arrivalSpeed="12.74" duration="79.00" routeLength="375.10" waitingTime="23.30" waitingCount="1" stopTime="0.00" timeLoss="49.66" rerouteNo="0" devices="tripinfo_flow1.23" vType="vtypeauto" speedFactor="0.92" vaporized=""/>
    <tripinfo id="flow1.24" depart="66.80" departLane="A3B3_0" departPos="4.10" departSpeed="0.00" departDelay="42.80" arrival="144.60" arrivalLane="D3E3_0" arrivalPos="79.20" arrivalSpeed="12.50" duration="77.80" routeLength="375.10" waitingTime="21.90" waitingCount="1" stopTime="0.00" timeLoss="47.94" rerouteNo="0" devices="tripinfo_flow1.24" vType="vtypeauto" speedFactor="0.91" vaporized=""/>
    <tripinfo id="flow1.25" depart="69.60" departLane="A3B3_0" departPos="4.10" departSpeed="0.00" departDelay="44.60" arrival="144.60" arrivalLane="D3E3_1" arrivalPos="79.20" arrivalSpeed="13.24" duration="75.00" routeLength="375.10" waitingTime="19.10" waitingCount="1" stopTime="0.00" timeLoss="46.71" rerouteNo="0" devices="tripinfo_flow1.25" vType="vtypeauto" speedFactor="0.96" vaporized=""/>
    <tripinfo id="flow1.26" depart="72.40" departLane="A3B3_0" departPos="4.10" departSpeed="0.00" departDelay="46.40" arrival="146.10" arrivalLane="D3E3_0" arrivalPos="79.20" arrivalSpeed="14.86" duration="73.70" routeLength="375.10" waitingTime="17.60" waitingCount="1" stopTime="0.00" timeLoss="48.45" rerouteNo="0" devices="tripinfo_flow1.26" vType="vtypeauto" speedFactor="1.07" vaporized=""/>
    <tripinfo id="flow1.27" depart="75.20" departLane="A3B3_0" departPos="4.10" departSpeed="0.00" departDelay="48.20" arrival="146.10" arrivalLane="D3E3_1" arrivalPos="79.20" arrivalSpeed="13.33" duration="70.90" routeLength="375.10" waitingTime="14.80" waitingCount="1" stopTime="0.00" timeLoss="42.75" rerouteNo="0" devices="tripinfo_flow1.27" vType="vtypeauto" speedFactor="0.96" vaporized=""/>
    <tripinfo id="flow3.2" depart="3.20" departLane="C0C1_0" departPos="4.10" departSpeed="0.00" departDelay="1.20" arrival="147.40" arrivalLane="D4E4_0" arrivalPos="83.20" arrivalSpeed="14.25" duration="144.20" routeLength="1101.23" waitingTime="8.40" waitingCount="2" stopTime="0.00" timeLoss="59.31" rerouteNo="0" devices="tripinfo_flow3.2" vType="vtypeauto" speedFactor="1.03" vaporized=""/>
    <tripinfo id="flow1.28" depart="78.00" departLane="A3B3_0" departPos="4.10" departSpeed="0.00" departDelay="50.00" arrival="147.60" arrivalLane="D3E3_0" arrivalPos="79.20" arrivalSpeed="14.01" duration="69.60" routeLength="375.10" waitingTime="13.50" waitingCount="1" stopTime="0.00" timeLoss="42.77" rerouteNo="0" devices="tripinfo_flow1.28" vType="vtypeauto" speedFactor="1.01" vaporized=""/>
    <tripinfo id="flow1.29" depart="80.80" departLane="A3B3_0" departPos="4.10" departSpeed="0.00" departDelay="51.80" arrival="147.60" arrivalLane="D3E3_1" arrivalPos="79.20" arrivalSpeed="13.85" duration="66.80" routeLength="375.10" waitingTime="10.70" waitingCount="1" stopTime="0.00" timeLoss="39.92" rerouteNo="0" devices="tripinfo_flow1.29" vType="vtypeauto" speedFactor="1.00" vaporized=""/>
    <tripinfo id="flow1.30" depart="83.10" departLane="A3B3_0" departPos="4.10" departSpeed="0.00" departDelay="53.10" arrival="149.00" arrivalLane="D3E3_0" arrivalPos="79.20" arrivalSpeed="15.26" duration="65.90" routeLength="375.10" waitingTime="9.90" waitingCount="1" stopTime="0.00" timeLoss="41.40" rerouteNo="0" devices="tripinfo_flow1.30" vType="vtypeauto" speedFactor="1.10" vaporized=""/>
    <tripinfo id="flow1.31" depart="85.90" departLane="A3B3_0" departPos="4.10" departSpeed="0.00" departDelay="54.90" arrival="149.10" arrivalLane="D3E3_1" arrivalPos="79.20" arrivalSpeed="15.90" duration="63.20" routeLength="375.10" waitingTime="7.10" waitingCount="1" stopTime="0.00" timeLoss="39.68" rerouteNo="0" devices="tripinfo_flow1.31" vType="vtypeauto" speedFactor="1.15" vaporized=""/>
    <tripinfo id="flow1.32" depart="87.50" departLane="A3B3_0" departPos="4.10" departSpeed="0.00" departDelay="55.50" arrival="150.60" arrivalLane="D3E3_0" arrivalPos="79.20" arrivalSpeed="13.91" duration="63.10" routeLength="375.10" waitingTime="7.20" waitingCount="1" stopTime="0.00" timeLoss="36.28" rerouteNo="0" devices="tripinfo_flow1.32" vType="vtypeauto" speedFactor="1.01" vaporized=""/>
    <tripinfo id="flow1.33" depart="90.30" departLane="A3B3_0" departPos="4.10" departSpeed="0.00" departDelay="57.30" arrival="150.60" arrivalLane="D3E3_1" arrivalPos="79.20" arrivalSpeed="14.41" duration="60.30" routeLength="375.10" waitingTime="4.40" waitingCount="1" stopTime="0.00" timeLoss="34.23" rerouteNo="0" devices="tripinfo_flow1.33" vType="vtypeauto" speedFactor="1.04" vaporized=""/>
    <tripinfo id="flow3.3" depart="5.20" departLane="C0C1_0" departPos="4.10" departSpeed="0.00" departDelay="2.20" arrival="150.80" arrivalLane="D4E4_0" arrivalPos="83.20" arrivalSpeed="12.78" duration="145.60" routeLength="1101.23" waitingTime="2.90" waitingCount="4" stopTime="0.00" timeLoss="51.50" rerouteNo="0" devices="tripinfo_flow3.3" vType="vtypeauto" speedFactor="0.93" vaporized=""/>
    <tripinfo id="flow1.35" depart="94.30" departLane="A3B3_0" departPos="4.10" departSpeed="0.00" departDelay="59.30" arrival="152.00" arrivalLane="D3E3_1" arrivalPos="79.20" arrivalSpeed="16.14" duration="57.70" routeLength="375.10" waitingTime="2.20" waitingCount="1" stopTime="0.00" timeLoss="34.48" rerouteNo="0" devices="tripinfo_flow1.35" vType="vtypeauto" speedFactor="1.16" vaporized=""/>
    <tripinfo id="flow1.34" depart="91.00" departLane="A3B3_0" departPos="4.10" departSpeed="0.00" departDelay="57.00" arrival="152.10" arrivalLane="D3E3_0" arrivalPos="79.20" arrivalSpeed="14.05" duration="61.10" routeLength="375.10" waitingTime="5.60" waitingCount="1" stopTime="0.00" timeLoss="34.50" rerouteNo="0" devices="tripinfo_flow1.34" vType="vtypeauto" speedFactor="1.02" vaporized=""/>
    <tripinfo id="flow3.4" depart="7.30" departLane="C0C1_0" departPos="4.10" departSpeed="0.00" departDelay="3.30" arrival="152.30" arrivalLane="D4E4_0" arrivalPos="83.20" arrivalSpeed="15.89" duration="145.00" routeLength="1101.23" waitingTime="1.80" waitingCount="3" stopTime="0.00" timeLoss="69.71" rerouteNo="0" devices="tripinfo_flow3.4" vType="vtypeauto" speedFactor="1.16" vaporized=""/>
    <tripinfo id="flow1.36" depart="94.70" departLane="A3B3_0" departPos="4.10" departSpeed="0.00" departDelay="58.70" arrival="153.60" arrivalLane="D3E3_0" arrivalPos="79.20" arrivalSpeed="15.80" duration="58.90" routeLength="375.10" waitingTime="4.70" waitingCount="1" stopTime="0.00" timeLoss="35.16" rerouteNo="0" devices="tripinfo_flow1.36" vType="vtypeauto" speedFactor="1.14" vaporized=""/>
    <tripinfo id="flow1.37" depart="108.00" departLane="A3B3_0" departPos="4.10" departSpeed="0.00" departDelay="71.00" arrival="153.60" arrivalLane="D3E3_1" arrivalPos="79.20" arrivalSpeed="14.42" duration="45.60" routeLength="375.10" waitingTime="0.00" waitingCount="0" stopTime="0.00" timeLoss="19.60" rerouteNo="0" devices="tripinfo_flow1.37" vType="vtypeauto" speedFactor="1.04" vaporized=""/>
    <tripinfo id="flow1.39" depart="113.50" departLane="A3B3_0" departPos="4.10" departSpeed="0.00" departDelay="74.50" arrival="155.10" arrivalLane="D3E3_1" arrivalPos="79.20" arrivalSpeed="14.92" duration="41.60" routeLength="375.10" waitingTime="0.00" waitingCount="0" stopTime="0.00" timeLoss="16.52" rerouteNo="0" devices="tripinfo_flow1.39" vType="vtypeauto" speedFactor="1.08" vaporized=""/>
    <tripinfo id="flow1.38" depart="110.80" departLane="A3B3_0" departPos="4.10" departSpeed="0.00" departDelay="72.80" arrival="155.60" arrivalLane="D3E3_0" arrivalPos="79.20" arrivalSpeed="12.81" duration="44.80" routeLength="375.10" waitingTime="0.00" waitingCount="0" stopTime="0.00" timeLoss="15.58" rerouteNo="0" devices="tripinfo_flow1.38" vType="vtypeauto" speedFactor="0.93" vaporized=""/>
    <tripinfo id="flow1.40" depart="116.30" departLane="A3B3_0" departPos="4.10" departSpeed="0.00" departDelay="76.30" arrival="157.00" arrivalLane="D3E3_0" arrivalPos="79.20" arrivalSpeed="14.89" duration="40.70" routeLength="375.10" waitingTime="0.00" waitingCount="0" stopTime="0.00" timeLoss="15.65" rerouteNo="0" devices="tripinfo_flow1.40" vType="vtypeauto" speedFactor="1.08" vaporized=""/>
    <tripinfo id="flow1.41" depart="119.10" departLane="A3B3_0" departPos="4.10" departSpeed="0.00" departDelay="78.10" arrival="157.20" arrivalLane="D3E3_1" arrivalPos="79.20" arrivalSpeed="12.61" duration="38.10" routeLength="375.10" waitingTime="0.00" waitingCount="0" stopTime="0.00" timeLoss="8.57" rerouteNo="0" devices="tripinfo_flow1.41" vType="vtypeauto" speedFactor="0.91" vaporized=""/>
    <tripinfo id="flow1.43" depart="124.60" departLane="A3B3_0" departPos="4.10" departSpeed="0.00" departDelay="81.60" arrival="158.70" arrivalLane="D3E3_1" arrivalPos="79.20" arrivalSpeed="15.12" duration="34.10" routeLength="375.10" waitingTime="0.00" waitingCount="0" stopTime="0.00" timeLoss="10.44" rerouteNo="0" devices="tripinfo_flow1.43" vType="vtypeauto" speedFactor="1.14" vaporized=""/>
    <tripinfo id="flow1.42" depart="121.80" departLane="A3B3_0" departPos="4.10" departSpeed="0.00" departDelay="79.80" arrival="158.80" arrivalLane="D3E3_0" arrivalPos="79.20" arrivalSpeed="13.03" duration="37.00" routeLength="375.10" waitingTime="0.00" waitingCount="0" stopTime="0.00" timeLoss="8.20" rerouteNo="0" devices="tripinfo_flow1.42" vType="vtypeauto" speedFactor="0.94" vaporized=""/>
    <tripinfo id="flow1.44" depart="127.40" departLane="A3B3_0" departPos="4.10" departSpeed="0.00" departDelay="83.40" arrival="160.30" arrivalLane="D3E3_0" arrivalPos="79.20" arrivalSpeed="14.29" duration="32.90" routeLength="375.10" waitingTime="0.00" waitingCount="0" stopTime="0.00" timeLoss="6.63" rerouteNo="0" devices="tripinfo_flow1.44" vType="vtypeauto" speedFactor="1.03" vaporized=""/>
    <tripinfo id="flow2.14" depart="39.00" departLane="A0A1_0" departPos="4.10" departSpeed="0.00" departDelay="25.00" arrival="160.90" arrivalLane="C3D3_0" arrivalPos="79.20" arrivalSpeed="14.11" duration="121.90" routeLength="540.89" waitingTime="48.10" waitingCount="3" stopTime="0.00" timeLoss="80.31" rerouteNo="0" devices="tripinfo_flow2.14" vType="vtypeauto" speedFactor="1.02" vaporized=""/>
    <tripinfo id="flow1.45" depart="130.20" departLane="A3B3_0" departPos="4.10" departSpeed="0.00" departDelay="85.20" arrival="161.80" arrivalLane="D3E3_0" arrivalPos="79.20" arrivalSpeed="14.20" duration="31.60" routeLength="375.10" waitingTime="0.00" waitingCount="0" stopTime="0.00" timeLoss="5.23" rerouteNo="0" devices="tripinfo_flow1.45" vType="vtypeauto" speedFactor="1.03" vaporized=""/>
    <tripinfo id="flow2.15" depart="41.80" departLane="A0A1_0" departPos="4.10" departSpeed="0.00" departDelay="26.80" arrival="162.60" arrivalLane="C3D3_0" arrivalPos="79.20" arrivalSpeed="14.07" duration="120.80" routeLength="540.89" waitingTime="40.00" waitingCount="2" stopTime="0.00" timeLoss="78.91" rerouteNo="0" devices="tripinfo_flow2.15" vType="vtypeauto" speedFactor="1.02" vaporized=""/>
    <tripinfo id="flow3.5" depart="9.60" departLane="C0C1_0" departPos="4.10" departSpeed="0.00" departDelay="4.60" arrival="163.60" arrivalLane="D4E4_0" arrivalPos="83.20" arrivalSpeed="12.33" duration="154.00" routeLength="1101.23" waitingTime="8.00" waitingCount="3" stopTime="0.00" timeLoss="56.12" rerouteNo="0" devices="tripinfo_flow3.5" vType="vtypeauto" speedFactor="0.89" vaporized=""/>
    <tripinfo id="flow2.16" depart="44.60" departLane="A0A1_0" departPos="4.10" departSpeed="0.00" departDelay="28.60" arrival="165.50" arrivalLane="C3D3_0" arrivalPos="79.20" arrivalSpeed="12.58" duration="120.90" routeLength="540.89" waitingTime="33.60" waitingCount="3" stopTime="0.00" timeLoss="73.93" rerouteNo="0" devices="tripinfo_flow2.16" vType="vtypeauto" speedFactor="0.91" vaporized=""/>
    <tripinfo id="flow3.6" depart="11.70" departLane="C0C1_0" departPos="4.10" departSpeed="0.00" departDelay="5.70" arrival="166.00" arrivalLane="D4E4_0" arrivalPos="83.20" arrivalSpeed="13.12" duration="154.30" routeLength="1101.23" waitingTime="2.20" waitingCount="2" stopTime="0.00" timeLoss="62.36" rerouteNo="0" devices="tripinfo_flow3.6" vType="vtypeauto" speedFactor="0.95" vaporized=""/>