<?xml version="1.0" encoding="UTF-8"?>

<!-- generated on 2024-10-30 18:52:52 by Eclipse SUMO sumo Version 1.20.0
<configuration xmlns:xsi="http://www.w3.org/2001/XMLSchema-instance" xsi:noNamespaceSchemaLocation="http://sumo.dlr.de/xsd/sumoConfiguration.xsd">

    <input>
        <net-file value="./sim_cfg_grid_2_lanes/grid.net.xml"/>
        <route-files value="./sim_cfg_grid_2_lanes/7x0.08.rou.xml"/>
    </input>

    <output>
        <tripinfo-output value="./sim_cfg_grid_2_lanes/tripinfo-platooning_0.067.xml"/>
    </output>

    <time>
        <begin value="0"/>
        <end value="500"/>
        <step-length value="0.1"/>
    </time>

    <traci_server>
        <remote-port value="50041"/>
    </traci_server>

    <gui_only>
        <gui-settings-file value="./sim_cfg_grid_2_lanes/gui_settings.xml"/>
    </gui_only>

</configuration>
-->

<tripinfos xmlns:xsi="http://www.w3.org/2001/XMLSchema-instance" xsi:noNamespaceSchemaLocation="http://sumo.dlr.de/xsd/tripinfo_file.xsd">
    <tripinfo id="flow1.0" depart="0.00" departLane="A3B3_0" departPos="4.10" departSpeed="0.00" departDelay="0.00" arrival="53.00" arrivalLane="D3E3_0" arrivalPos="79.20" arrivalSpeed="12.99" duration="53.00" routeLength="375.10" waitingTime="12.70" waitingCount="2" stopTime="0.00" timeLoss="24.17" rerouteNo="0" devices="tripinfo_flow1.0" vType="vtypeauto" speedFactor="0.94" vaporized=""/>
    <tripinfo id="flow6.1" depart="12.00" departLane="D4D3_0" departPos="4.10" departSpeed="0.00" departDelay="0.00" arrival="58.40" arrivalLane="D1D0_1" arrivalPos="79.20" arrivalSpeed="15.59" duration="46.40" routeLength="375.10" waitingTime="8.00" waitingCount="2" stopTime="0.00" timeLoss="22.27" rerouteNo="0" devices="tripinfo_flow6.1" vType="vtypeauto" speedFactor="1.12" vaporized=""/>
    <tripinfo id="flow4.0" depart="1.30" departLane="C0C1_0" departPos="4.10" departSpeed="0.00" departDelay="1.30" arrival="58.50" arrivalLane="C3C4_0" arrivalPos="79.20" arrivalSpeed="14.22" duration="57.20" routeLength="375.10" waitingTime="13.90" waitingCount="3" stopTime="0.00" timeLoss="30.99" rerouteNo="0" devices="tripinfo_flow4.0" vType="vtypeauto" speedFactor="1.03" vaporized=""/>
    <tripinfo id="flow6.0" depart="0.00" departLane="D4D3_0" departPos="4.10" departSpeed="0.00" departDelay="0.00" arrival="58.50" arrivalLane="D1D0_0" arrivalPos="79.20" arrivalSpeed="14.52" duration="58.50" routeLength="375.10" waitingTime="15.50" waitingCount="3" stopTime="0.00" timeLoss="32.68" rerouteNo="0" devices="tripinfo_flow6.0" vType="vtypeauto" speedFactor="1.05" vaporized=""/>
    <tripinfo id="flow4.1" depart="13.20" departLane="C0C1_0" departPos="4.10" departSpeed="0.00" departDelay="1.20" arrival="58.90" arrivalLane="C3C4_1" arrivalPos="79.20" arrivalSpeed="14.17" duration="45.70" routeLength="375.10" waitingTime="6.00" waitingCount="2" stopTime="0.00" timeLoss="19.30" rerouteNo="0" devices="tripinfo_flow4.1" vType="vtypeauto" speedFactor="1.03" vaporized=""/>
    <tripinfo id="flow2.0" depart="0.00" departLane="A0A1_0" departPos="4.10" departSpeed="0.00" departDelay="0.00" arrival="62.90" arrivalLane="C3D3_0" arrivalPos="79.20" arrivalSpeed="13.99" duration="62.90" routeLength="540.89" waitingTime="5.60" waitingCount="1" stopTime="0.00" timeLoss="20.87" rerouteNo="0" devices="tripinfo_flow2.0" vType="vtypeauto" speedFactor="1.01" vaporized=""/>
    <tripinfo id="flow0.0" depart="0.00" departLane="B4B3_0" departPos="4.10" departSpeed="0.00" departDelay="0.00" arrival="67.60" arrivalLane="B3A3_1" arrivalPos="79.20" arrivalSpeed="14.72" duration="67.60" routeLength="570.75" waitingTime="10.70" waitingCount="2" stopTime="0.00" timeLoss="26.81" rerouteNo="0" devices="tripinfo_flow0.0" vType="vtypeauto" speedFactor="1.06" vaporized=""/>
    <tripinfo id="flow5.0" depart="0.00" departLane="E2D2_0" departPos="4.10" departSpeed="0.00" departDelay="0.00" arrival="67.90" arrivalLane="B1A1_0" arrivalPos="79.20" arrivalSpeed="11.48" duration="67.90" routeLength="635.44" waitingTime="0.00" waitingCount="0" stopTime="0.00" timeLoss="7.79" rerouteNo="0" devices="tripinfo_flow5.0" vType="vtypeauto" speedFactor="0.83" vaporized=""/>
    <tripinfo id="flow1.1" depart="12.00" departLane="A3B3_0" departPos="4.10" departSpeed="0.00" departDelay="0.00" arrival="68.90" arrivalLane="D3E3_0" arrivalPos="79.20" arrivalSpeed="12.93" duration="56.90" routeLength="375.10" waitingTime="12.50" waitingCount="3" stopTime="0.00" timeLoss="28.10" rerouteNo="0" devices="tripinfo_flow1.1" vType="vtypeauto" speedFactor="0.94" vaporized=""/>
    <tripinfo id="flow2.1" depart="12.00" departLane="A0A1_0" departPos="4.10" departSpeed="0.00" departDelay="0.00" arrival="69.70" arrivalLane="C3D3_0" arrivalPos="79.20" arrivalSpeed="11.87" duration="57.70" routeLength="540.89" waitingTime="0.00" waitingCount="0" stopTime="0.00" timeLoss="8.03" rerouteNo="0" devices="tripinfo_flow2.1" vType="vtypeauto" speedFactor="0.86" vaporized=""/>
    <tripinfo id="flow6.2" depart="24.00" departLane="D4D3_0" departPos="4.10" departSpeed="0.00" departDelay="0.00" arrival="77.50" arrivalLane="D1D0_0" arrivalPos="79.20" arrivalSpeed="14.09" duration="53.50" routeLength="375.10" waitingTime="10.30" waitingCount="3" stopTime="0.00" timeLoss="26.97" rerouteNo="0" devices="tripinfo_flow6.2" vType="vtypeauto" speedFactor="1.02" vaporized=""/>
    <tripinfo id="flow5.1" depart="12.00" departLane="E2D2_0" departPos="4.10" departSpeed="0.00" departDelay="0.00" arrival="81.40" arrivalLane="B1A1_0" arrivalPos="79.20" arrivalSpeed="14.46" duration="69.40" routeLength="635.44" waitingTime="4.70" waitingCount="2" stopTime="0.00" timeLoss="21.54" rerouteNo="0" devices="tripinfo_flow5.1" vType="vtypeauto" speedFactor="1.05" vaporized=""/>
    <tripinfo id="flow1.2" depart="24.00" departLane="A3B3_0" departPos="4.10" departSpeed="0.00" departDelay="0.00" arrival="84.60" arrivalLane="D3E3_0" arrivalPos="79.20" arrivalSpeed="12.86" duration="60.60" routeLength="375.10" waitingTime="19.30" waitingCount="2" stopTime="0.00" timeLoss="31.43" rerouteNo="0" devices="tripinfo_flow1.2" vType="vtypeauto" speedFactor="0.93" vaporized=""/>
    <tripinfo id="flow4.2" depart="25.40" departLane="C0C1_0" departPos="4.10" departSpeed="0.00" departDelay="1.40" arrival="84.90" arrivalLane="C3C4_0" arrivalPos="79.20" arrivalSpeed="12.99" duration="59.50" routeLength="375.10" waitingTime="16.10" waitingCount="2" stopTime="0.00" timeLoss="30.65" rerouteNo="0" devices="tripinfo_flow4.2" vType="vtypeauto" speedFactor="0.94" vaporized=""/>
    <tripinfo id="flow1.3" depart="36.00" departLane="A3B3_0" departPos="4.10" departSpeed="0.00" departDelay="0.00" arrival="84.90" arrivalLane="D3E3_1" arrivalPos="79.20" arrivalSpeed="13.53" duration="48.90" routeLength="375.10" waitingTime="11.10" waitingCount="1" stopTime="0.00" timeLoss="21.17" rerouteNo="0" devices="tripinfo_flow1.3" vType="vtypeauto" speedFactor="0.97" vaporized=""/>
    <tripinfo id="flow0.1" depart="12.00" departLane="B4B3_0" departPos="4.10" departSpeed="0.00" departDelay="0.00" arrival="85.20" arrivalLane="B3A3_0" arrivalPos="79.20" arrivalSpeed="12.22" duration="73.20" routeLength="570.75" waitingTime="6.50" waitingCount="1" stopTime="0.00" timeLoss="24.43" rerouteNo="0" devices="tripinfo_flow0.1" vType="vtypeauto" speedFactor="0.89" vaporized=""/>
    <tripinfo id="flow1.4" depart="48.00" departLane="A3B3_0" departPos="4.10" departSpeed="0.00" departDelay="0.00" arrival="86.20" arrivalLane="D3E3_0" arrivalPos="79.20" arrivalSpeed="12.90" duration="38.20" routeLength="375.10" waitingTime="0.20" waitingCount="1" stopTime="0.00" timeLoss="9.19" rerouteNo="0" devices="tripinfo_flow1.4" vType="vtypeauto" speedFactor="0.93" vaporized=""/>
    <tripinfo id="flow2.2" depart="24.00" departLane="A0A1_0" departPos="4.10" departSpeed="0.00" departDelay="0.00" arrival="86.60" arrivalLane="C3D3_0" arrivalPos="79.20" arrivalSpeed="12.19" duration="62.60" routeLength="540.89" waitingTime="0.40" waitingCount="1" stopTime="0.00" timeLoss="14.21" rerouteNo="0" devices="tripinfo_flow2.2" vType="vtypeauto" speedFactor="0.88" vaporized=""/>
    <tripinfo id="flow6.3" depart="36.00" departLane="D4D3_0" departPos="4.10" departSpeed="0.00" departDelay="0.00" arrival="94.00" arrivalLane="D1D0_0" arrivalPos="79.20" arrivalSpeed="13.11" duration="58.00" routeLength="375.10" waitingTime="13.50" waitingCount="3" stopTime="0.00" timeLoss="29.51" rerouteNo="0" devices="tripinfo_flow6.3" vType="vtypeauto" speedFactor="0.95" vaporized=""/>
    <tripinfo id="flow1.5" depart="60.00" departLane="A3B3_0" departPos="4.10" departSpeed="0.00" departDelay="0.00" arrival="100.10" arrivalLane="D3E3_0" arrivalPos="79.20" arrivalSpeed="13.51" duration="40.10" routeLength="375.10" waitingTime="4.20" waitingCount="1" stopTime="0.00" timeLoss="12.36" rerouteNo="0" devices="tripinfo_flow1.5" vType="vtypeauto" speedFactor="0.97" vaporized=""/>
    <tripinfo id="flow5.2" depart="24.00" departLane="E2D2_0" departPos="4.10" departSpeed="0.00" departDelay="0.00" arrival="100.60" arrivalLane="B1A1_0" arrivalPos="79.20" arrivalSpeed="16.06" duration="76.60" routeLength="635.44" waitingTime="9.30" waitingCount="2" stopTime="0.00" timeLoss="33.38" rerouteNo="0" devices="tripinfo_flow5.2" vType="vtypeauto" speedFactor="1.16" vaporized=""/>
    <tripinfo id="flow4.4" depart="49.20" departLane="C0C1_0" departPos="4.10" departSpeed="0.00" departDelay="1.20" arrival="100.60" arrivalLane="C3C4_1" arrivalPos="79.20" arrivalSpeed="13.87" duration="51.40" routeLength="375.10" waitingTime="11.60" waitingCount="2" stopTime="0.00" timeLoss="24.51" rerouteNo="0" devices="tripinfo_flow4.4" vType="vtypeauto" speedFactor="1.01" vaporized=""/>
    <tripinfo id="flow0.2" depart="24.00" departLane="B4B3_0" departPos="4.10" departSpeed="0.00" departDelay="0.00" arrival="100.70" arrivalLane="B3A3_0" arrivalPos="79.20" arrivalSpeed="13.76" duration="76.70" routeLength="570.75" waitingTime="13.80" waitingCount="4" stopTime="0.00" timeLoss="33.06" rerouteNo="0" devices="tripinfo_flow0.2" vType="vtypeauto" speedFactor="0.99" vaporized=""/>
    <tripinfo id="flow4.3" depart="37.40" departLane="C0C1_0" departPos="4.10" departSpeed="0.00" departDelay="1.40" arrival="101.40" arrivalLane="C3C4_0" arrivalPos="79.20" arrivalSpeed="12.09" duration="64.00" routeLength="375.10" waitingTime="18.40" waitingCount="3" stopTime="0.00" timeLoss="33.02" rerouteNo="0" devices="tripinfo_flow4.3" vType="vtypeauto" speedFactor="0.87" vaporized=""/>
    <tripinfo id="flow2.3" depart="36.00" departLane="A0A1_0" departPos="4.10" departSpeed="0.00" departDelay="0.00" arrival="103.00" arrivalLane="C3D3_0" arrivalPos="79.20" arrivalSpeed="12.31" duration="67.00" routeLength="540.89" waitingTime="7.50" waitingCount="1" stopTime="0.00" timeLoss="19.13" rerouteNo="0" devices="tripinfo_flow2.3" vType="vtypeauto" speedFactor="0.89" vaporized=""/>
    <tripinfo id="flow5.3" depart="36.00" departLane="E2D2_0" departPos="4.10" departSpeed="0.00" departDelay="0.00" arrival="105.00" arrivalLane="B1A1_0" arrivalPos="79.20" arrivalSpeed="12.63" duration="69.00" routeLength="635.44" waitingTime="0.00" waitingCount="0" stopTime="0.00" timeLoss="14.46" rerouteNo="0" devices="tripinfo_flow5.3" vType="vtypeauto" speedFactor="0.92" vaporized=""/>
    <tripinfo id="flow2.4" depart="48.00" departLane="A0A1_0" departPos="4.10" departSpeed="0.00" departDelay="0.00" arrival="105.50" arrivalLane="C3D3_0" arrivalPos="79.20" arrivalSpeed="16.35" duration="57.50" routeLength="540.89" waitingTime="0.00" waitingCount="0" stopTime="0.00" timeLoss="21.44" rerouteNo="0" devices="tripinfo_flow2.4" vType="vtypeauto" speedFactor="1.18" vaporized=""/>
    <tripinfo id="flow6.4" depart="48.00" departLane="D4D3_0" departPos="4.10" departSpeed="0.00" departDelay="0.00" arrival="109.80" arrivalLane="D1D0_0" arrivalPos="79.20" arrivalSpeed="13.77" duration="61.80" routeLength="375.10" waitingTime="18.10" waitingCount="3" stopTime="0.00" timeLoss="34.66" rerouteNo="0" devices="tripinfo_flow6.4" vType="vtypeauto" speedFactor="0.99" vaporized=""/>
    <tripinfo id="flow6.5" depart="60.00" departLane="D4D3_0" departPos="4.10" departSpeed="0.00" departDelay="0.00" arrival="109.80" arrivalLane="D1D0_1" arrivalPos="79.20" arrivalSpeed="13.22" duration="49.80" routeLength="375.10" waitingTime="9.30" waitingCount="2" stopTime="0.00" timeLoss="21.57" rerouteNo="0" devices="tripinfo_flow6.5" vType="vtypeauto" speedFactor="0.96" vaporized=""/>
    <tripinfo id="flow0.4" depart="48.00" departLane="B4B3_0" departPos="4.10" departSpeed="0.00" departDelay="0.00" arrival="114.20" arrivalLane="B3A3_0" arrivalPos="79.20" arrivalSpeed="15.61" duration="66.20" routeLength="570.75" waitingTime="8.50" waitingCount="1" stopTime="0.00" timeLoss="28.04" rerouteNo="0" devices="tripinfo_flow0.4" vType="vtypeauto" speedFactor="1.13" vaporized=""/>
    <tripinfo id="flow0.3" depart="36.00" departLane="B4B3_0" departPos="4.10" departSpeed="0.00" departDelay="0.00" arrival="116.80" arrivalLane="B3A3_0" arrivalPos="79.20" arrivalSpeed="13.93" duration="80.80" routeLength="570.75" waitingTime="16.00" waitingCount="3" stopTime="0.00" timeLoss="38.00" rerouteNo="0" devices="tripinfo_flow0.3" vType="vtypeauto" speedFactor="1.01" vaporized=""/>
    <tripinfo id="flow0.5" depart="60.00" departLane="B4B3_0" departPos="4.10" departSpeed="0.00" departDelay="0.00" arrival="118.20" arrivalLane="B3A3_1" arrivalPos="79.20" arrivalSpeed="14.11" duration="58.20" routeLength="570.75" waitingTime="0.00" waitingCount="0" stopTime="0.00" timeLoss="15.86" rerouteNo="0" devices="tripinfo_flow0.5" vType="vtypeauto" speedFactor="1.02" vaporized=""/>
    <tripinfo id="flow5.4" depart="48.00" departLane="E2D2_0" departPos="4.10" departSpeed="0.00" departDelay="0.00" arrival="120.10" arrivalLane="B1A1_0" arrivalPos="79.20" arrivalSpeed="16.25" duration="72.10" routeLength="635.44" waitingTime="5.90" waitingCount="3" stopTime="0.00" timeLoss="29.43" rerouteNo="0" devices="tripinfo_flow5.4" vType="vtypeauto" speedFactor="1.17" vaporized=""/>
    <tripinfo id="flow1.6" depart="72.00" departLane="A3B3_0" departPos="4.10" departSpeed="0.00" departDelay="0.00" arrival="120.60" arrivalLane="D3E3_0" arrivalPos="79.20" arrivalSpeed="14.29" duration="48.60" routeLength="375.10" waitingTime="9.70" waitingCount="2" stopTime="0.00" timeLoss="22.50" rerouteNo="0" devices="tripinfo_flow1.6" vType="vtypeauto" speedFactor="1.04" vaporized=""/>
    <tripinfo id="flow4.6" depart="73.30" departLane="C0C1_0" departPos="4.10" departSpeed="0.00" departDelay="1.30" arrival="121.70" arrivalLane="C3C4_1" arrivalPos="79.20" arrivalSpeed="13.74" duration="48.40" routeLength="375.10" waitingTime="7.30" waitingCount="2" stopTime="0.00" timeLoss="21.32" rerouteNo="0" devices="tripinfo_flow4.6" vType="vtypeauto" speedFactor="1.00" vaporized=""/>
    <tripinfo id="flow4.5" depart="61.40" departLane="C0C1_0" departPos="4.10" departSpeed="0.00" departDelay="1.40" arrival="122.10" arrivalLane="C3C4_0" arrivalPos="79.20" arrivalSpeed="12.45" duration="60.70" routeLength="375.10" waitingTime="17.30" waitingCount="2" stopTime="0.00" timeLoss="30.68" rerouteNo="0" devices="tripinfo_flow4.5" vType="vtypeauto" speedFactor="0.90" vaporized=""/>
    <tripinfo id="flow1.7" depart="84.00" departLane="A3B3_0" departPos="4.10" departSpeed="0.00" departDelay="0.00" arrival="122.90" arrivalLane="D3E3_1" arrivalPos="79.20" arrivalSpeed="11.81" duration="38.90" routeLength="375.10" waitingTime="0.10" waitingCount="1" stopTime="0.00" timeLoss="7.26" rerouteNo="0" devices="tripinfo_flow1.7" vType="vtypeauto" speedFactor="0.85" vaporized=""/>
    <tripinfo id="flow4.7" depart="85.20" departLane="C0C1_0" departPos="4.10" departSpeed="0.00" departDelay="1.20" arrival="123.60" arrivalLane="C3C4_0" arrivalPos="79.20" arrivalSpeed="15.10" duration="38.40" routeLength="375.10" waitingTime="0.00" waitingCount="0" stopTime="0.00" timeLoss="13.70" rerouteNo="0" devices="tripinfo_flow4.7" vType="vtypeauto" speedFactor="1.10" vaporized=""/>
    <tripinfo id="flow2.5" depart="60.00" departLane="A0A1_0" departPos="4.10" departSpeed="0.00" departDelay="0.00" arrival="124.90" arrivalLane="C3D3_0" arrivalPos="79.20" arrivalSpeed="16.31" duration="64.90" routeLength="540.89" waitingTime="1.50" waitingCount="1" stopTime="0.00" timeLoss="28.86" rerouteNo="0" devices="tripinfo_flow2.5" vType="vtypeauto" speedFactor="1.18" vaporized=""/>
    <tripinfo id="flow3.0" depart="0.00" departLane="C0C1_0" departPos="4.10" departSpeed="0.00" departDelay="0.00" arrival="128.00" arrivalLane="D4E4_0" arrivalPos="83.20" arrivalSpeed="14.99" duration="128.00" routeLength="1101.23" waitingTime="16.70" waitingCount="5" stopTime="0.00" timeLoss="47.45" rerouteNo="0" devices="tripinfo_flow3.0" vType="vtypeauto" speedFactor="1.08" vaporized=""/>
    <tripinfo id="flow6.6" depart="72.00" departLane="D4D3_0" departPos="4.10" departSpeed="0.00" departDelay="0.00" arrival="128.30" arrivalLane="D1D0_0" arrivalPos="79.20" arrivalSpeed="12.07" duration="56.30" routeLength="375.10" waitingTime="10.80" waitingCount="3" stopTime="0.00" timeLoss="25.47" rerouteNo="0" devices="tripinfo_flow6.6" vType="vtypeauto" speedFactor="0.88" vaporized=""/>
    <tripinfo id="flow0.6" depart="72.00" departLane="B4B3_0" departPos="4.10" departSpeed="0.00" departDelay="0.00" arrival="130.50" arrivalLane="B3A3_1" arrivalPos="79.20" arrivalSpeed="15.12" duration="58.50" routeLength="570.75" waitingTime="5.00" waitingCount="2" stopTime="0.00" timeLoss="18.98" rerouteNo="0" devices="tripinfo_flow0.6" vType="vtypeauto" speedFactor="1.09" vaporized=""/>
    <tripinfo id="flow1.8" depart="96.00" departLane="A3B3_0" departPos="4.10" departSpeed="0.00" departDelay="0.00" arrival="139.60" arrivalLane="D3E3_0" arrivalPos="79.20" arrivalSpeed="15.76" duration="43.60" routeLength="375.10" waitingTime="6.00" waitingCount="2" stopTime="0.00" timeLoss="19.90" rerouteNo="0" devices="tripinfo_flow1.8" vType="vtypeauto" speedFactor="1.14" vaporized=""/>
    <tripinfo id="flow5.5" depart="60.00" departLane="E2D2_0" departPos="4.10" departSpeed="0.00" departDelay="0.00" arrival="140.70" arrivalLane="B1A1_0" arrivalPos="79.20" arrivalSpeed="14.24" duration="80.70" routeLength="635.44" waitingTime="12.00" waitingCount="3" stopTime="0.00" timeLoss="32.09" rerouteNo="0" devices="tripinfo_flow5.5" vType="vtypeauto" speedFactor="1.03" vaporized=""/>
    <tripinfo id="flow4.8" depart="97.40" departLane="C0C1_0" departPos="4.10" departSpeed="0.00" departDelay="1.40" arrival="141.40" arrivalLane="C3C4_0" arrivalPos="79.20" arrivalSpeed="14.93" duration="44.00" routeLength="375.10" waitingTime="5.70" waitingCount="2" stopTime="0.00" timeLoss="19.01" rerouteNo="0" devices="tripinfo_flow4.8" vType="vtypeauto" speedFactor="1.08" vaporized=""/>
    <tripinfo id="flow6.8" depart="96.00" departLane="D4D3_0" departPos="4.10" departSpeed="0.00" departDelay="0.00" arrival="143.70" arrivalLane="D1D0_1" arrivalPos="79.20" arrivalSpeed="14.10" duration="47.70" routeLength="375.10" waitingTime="7.90" waitingCount="2" stopTime="0.00" timeLoss="21.08" rerouteNo="0" devices="tripinfo_flow6.8" vType="vtypeauto" speedFactor="1.02" vaporized=""/>
    <tripinfo id="flow6.7" depart="84.00" departLane="D4D3_0" departPos="4.10" departSpeed="0.00" departDelay="0.00" arrival="143.80" arrivalLane="D1D0_0" arrivalPos="79.20" arrivalSpeed="13.77" duration="59.80" routeLength="375.10" waitingTime="15.90" waitingCount="3" stopTime="0.00" timeLoss="32.61" rerouteNo="0" devices="tripinfo_flow6.7" vType="vtypeauto" speedFactor="1.00" vaporized=""/>
    <tripinfo id="flow2.6" depart="72.00" departLane="A0A1_0" departPos="4.10" departSpeed="0.00" departDelay="0.00" arrival="144.10" arrivalLane="C3D3_0" arrivalPos="79.20" arrivalSpeed="14.48" duration="72.10" routeLength="540.89" waitingTime="10.60" waitingCount="1" stopTime="0.00" timeLoss="31.28" rerouteNo="0" devices="tripinfo_flow2.6" vType="vtypeauto" speedFactor="1.04" vaporized=""/>
    <tripinfo id="flow3.1" depart="12.00" departLane="C0C1_0" departPos="4.10" departSpeed="0.00" departDelay="0.00" arrival="145.10" arrivalLane="D4E4_0" arrivalPos="83.20" arrivalSpeed="15.10" duration="133.10" routeLength="1101.23" waitingTime="17.40" waitingCount="4" stopTime="0.00" timeLoss="53.14" rerouteNo="0" devices="tripinfo_flow3.1" vType="vtypeauto" speedFactor="1.09" vaporized=""/>
    <tripinfo id="flow1.9" depart="108.00" departLane="A3B3_0" departPos="4.10" departSpeed="0.00" departDelay="0.00" arrival="159.60" arrivalLane="D3E3_0" arrivalPos="79.20" arrivalSpeed="13.00" duration="51.60" routeLength="375.10" waitingTime="11.20" waitingCount="2" stopTime="0.00" timeLoss="22.71" rerouteNo="0" devices="tripinfo_flow1.9" vType="vtypeauto" speedFactor="0.94" vaporized=""/>
    <tripinfo id="flow4.10" depart="121.20" departLane="C0C1_0" departPos="4.10" departSpeed="0.00" departDelay="1.20" arrival="159.90" arrivalLane="C3C4_1" arrivalPos="79.20" arrivalSpeed="13.26" duration="38.70" routeLength="375.10" waitingTime="2.10" waitingCount="1" stopTime="0.00" timeLoss="10.38" rerouteNo="0" devices="tripinfo_flow4.10" vType="vtypeauto" speedFactor="0.96" vaporized=""/>
    <tripinfo id="flow4.9" depart="109.30" departLane="C0C1_0" departPos="4.10" departSpeed="0.00" departDelay="1.30" arrival="160.10" arrivalLane="C3C4_0" arrivalPos="79.20" arrivalSpeed="12.63" duration="50.80" routeLength="375.10" waitingTime="9.90" waitingCount="2" stopTime="0.00" timeLoss="21.24" rerouteNo="0" devices="tripinfo_flow4.9" vType="vtypeauto" speedFactor="0.91" vaporized=""/>
    <tripinfo id="flow2.7" depart="84.00" departLane="A0A1_0" departPos="4.10" departSpeed="0.00" departDelay="0.00" arrival="160.60" arrivalLane="C3D3_0" arrivalPos="79.20" arrivalSpeed="16.12" duration="76.60" routeLength="540.89" waitingTime="13.10" waitingCount="1" stopTime="0.00" timeLoss="40.29" rerouteNo="0" devices="tripinfo_flow2.7" vType="vtypeauto" speedFactor="1.17" vaporized=""/>
    <tripinfo id="flow5.6" depart="72.00" departLane="E2D2_0" departPos="4.10" departSpeed="0.00" departDelay="0.00" arrival="161.20" arrivalLane="B1A1_0" arrivalPos="79.20" arrivalSpeed="12.46" duration="89.20" routeLength="635.44" waitingTime="16.60" waitingCount="3" stopTime="0.00" timeLoss="33.55" rerouteNo="0" devices="tripinfo_flow5.6" vType="vtypeauto" speedFactor="0.90" vaporized=""/>
    <tripinfo id="flow6.9" depart="108.00" departLane="D4D3_0" departPos="4.10" departSpeed="0.00" departDelay="0.00" arrival="161.60" arrivalLane="D1D0_0" arrivalPos="79.20" arrivalSpeed="14.20" duration="53.60" routeLength="375.10" waitingTime="10.10" waitingCount="3" stopTime="0.00" timeLoss="27.15" rerouteNo="0" devices="tripinfo_flow6.9" vType="vtypeauto" speedFactor="1.02" vaporized=""/>
    <tripinfo id="flow5.7" depart="84.00" departLane="E2D2_0" departPos="4.10" departSpeed="0.00" departDelay="0.00" arrival="163.00" arrivalLane="B1A1_0" arrivalPos="79.20" arrivalSpeed="13.85" duration="79.00" routeLength="635.44" waitingTime="0.40" waitingCount="1" stopTime="0.00" timeLoss="29.15" rerouteNo="0" devices="tripinfo_flow5.7" vType="vtypeauto" speedFactor="1.00" vaporized=""/>
    <tripinfo id="flow2.8" depart="96.00" departLane="A0A1_0" departPos="4.10" departSpeed="0.00" departDelay="0.00" arrival="165.10" arrivalLane="C3D3_0" arrivalPos="79.20" arrivalSpeed="14.11" duration="69.10" routeLength="540.89" waitingTime="3.70" waitingCount="1" stopTime="0.00" timeLoss="27.51" rerouteNo="0" devices="tripinfo_flow2.8" vType="vtypeauto" speedFactor="1.02" vaporized=""/>
    <tripinfo id="flow0.7" depart="84.00" departLane="B4B3_0" departPos="4.10" departSpeed="0.00" departDelay="0.00" arrival="165.40" arrivalLane="B3A3_0" arrivalPos="79.20" arrivalSpeed="11.80" duration="81.40" routeLength="570.75" waitingTime="14.90" waitingCount="3" stopTime="0.00" timeLoss="30.63" rerouteNo="0" devices="tripinfo_flow0.7" vType="vtypeauto" speedFactor="0.85" vaporized=""/>
    <tripinfo id="flow3.2" depart="24.00" departLane="C0C1_0" departPos="4.10" departSpeed="0.00" departDelay="0.00" arrival="165.90" arrivalLane="D4E4_0" arrivalPos="83.20" arrivalSpeed="12.96" duration="141.90" routeLength="1101.23" waitingTime="20.10" waitingCount="4" stopTime="0.00" timeLoss="49.36" rerouteNo="0" devices="tripinfo_flow3.2" vType="vtypeauto" speedFactor="0.94" vaporized=""/>
    <tripinfo id="flow6.10" depart="120.00" departLane="D4D3_0" departPos="4.10" departSpeed="0.00" departDelay="0.00" arrival="177.50" arrivalLane="D1D0_0" arrivalPos="79.20" arrivalSpeed="14.23" duration="57.50" routeLength="375.10" waitingTime="16.80" waitingCount="2" stopTime="0.00" timeLoss="31.34" rerouteNo="0" devices="tripinfo_flow6.10" vType="vtypeauto" speedFactor="1.03" vaporized=""/>
    <tripinfo id="flow6.11" depart="132.00" departLane="D4D3_0" departPos="4.10" departSpeed="0.00" departDelay="0.00" arrival="178.00" arrivalLane="D1D0_1" arrivalPos="79.20" arrivalSpeed="13.31" duration="46.00" routeLength="375.10" waitingTime="5.40" waitingCount="1" stopTime="0.00" timeLoss="18.02" rerouteNo="0" devices="tripinfo_flow6.11" vType="vtypeauto" speedFactor="0.97" vaporized=""/>
    <tripinfo id="flow0.9" depart="108.00" departLane="B4B3_0" departPos="4.10" departSpeed="0.00" departDelay="0.00" arrival="179.50" arrivalLane="B3A3_0" arrivalPos="79.20" arrivalSpeed="13.68" duration="71.50" routeLength="570.75" waitingTime="0.00" waitingCount="0" stopTime="0.00" timeLoss="27.73" rerouteNo="0" devices="tripinfo_flow0.9" vType="vtypeauto" speedFactor="0.99" vaporized=""/>
    <tripinfo id="flow5.8" depart="96.00" departLane="E2D2_0" departPos="4.10" departSpeed="0.00" departDelay="0.00" arrival="179.70" arrivalLane="B1A1_0" arrivalPos="79.20" arrivalSpeed="15.47" duration="83.70" routeLength="635.44" waitingTime="14.20" waitingCount="3" stopTime="0.00" timeLoss="38.98" rerouteNo="0" devices="tripinfo_flow5.8" vType="vtypeauto" speedFactor="1.12" vaporized=""/>
    <tripinfo id="flow0.8" depart="96.00" departLane="B4B3_0" departPos="4.10" departSpeed="0.00" departDelay="0.00" arrival="181.10" arrivalLane="B3A3_0" arrivalPos="79.20" arrivalSpeed="12.48" duration="85.10" routeLength="570.75" waitingTime="16.30" waitingCount="3" stopTime="0.00" timeLoss="37.11" rerouteNo="0" devices="tripinfo_flow0.8" vType="vtypeauto" speedFactor="0.90" vaporized=""/>
    <tripinfo id="flow4.11" depart="133.40" departLane="C0C1_0" departPos="4.10" departSpeed="0.00" departDelay="1.40" arrival="182.80" arrivalLane="C3C4_0" arrivalPos="79.20" arrivalSpeed="13.75" duration="49.40" routeLength="375.10" waitingTime="6.80" waitingCount="2" stopTime="0.00" timeLoss="22.27" rerouteNo="0" devices="tripinfo_flow4.11" vType="vtypeauto" speedFactor="1.00" vaporized=""/>
    <tripinfo id="flow3.3" depart="36.00" departLane="C0C1_0" departPos="4.10" departSpeed="0.00" departDelay="0.00" arrival="186.20" arrivalLane="D4E4_0" arrivalPos="83.20" arrivalSpeed="11.36" duration="150.20" routeLength="1101.23" waitingTime="18.30" waitingCount="4" stopTime="0.00" timeLoss="44.62" rerouteNo="0" devices="tripinfo_flow3.3" vType="vtypeauto" speedFactor="0.83" vaporized=""/>
    <tripinfo id="flow2.9" depart="108.00" departLane="A0A1_0" departPos="4.10" departSpeed="0.00" departDelay="0.00" arrival="187.60" arrivalLane="C3D3_0" arrivalPos="79.20" arrivalSpeed="8.31" duration="79.60" routeLength="540.89" waitingTime="10.50" waitingCount="1" stopTime="0.00" timeLoss="31.41" rerouteNo="0" devices="tripinfo_flow2.9" vType="vtypeauto" speedFactor="0.88" vaporized=""/>
    <tripinfo id="flow2.10" depart="120.00" departLane="A0A1_0" departPos="4.10" departSpeed="0.00" departDelay="0.00" arrival="189.30" arrivalLane="C3D3_0" arrivalPos="79.20" arrivalSpeed="10.71" duration="69.30" routeLength="540.89" waitingTime="0.00" waitingCount="0" stopTime="0.00" timeLoss="24.05" rerouteNo="0" devices="tripinfo_flow2.10" vType="vtypeauto" speedFactor="0.94" vaporized=""/>
    <tripinfo id="flow1.10" depart="120.00" departLane="A3B3_0" departPos="4.10" departSpeed="0.00" departDelay="0.00" arrival="192.80" arrivalLane="D3E3_0" arrivalPos="79.20" arrivalSpeed="13.47" duration="72.80" routeLength="375.10" waitingTime="28.90" waitingCount="3" stopTime="0.00" timeLoss="45.03" rerouteNo="0" devices="tripinfo_flow1.10" vType="vtypeauto" speedFactor="0.97" vaporized=""/>
    <tripinfo id="flow1.11" depart="132.00" departLane="A3B3_0" departPos="4.10" departSpeed="0.00" departDelay="0.00" arrival="192.80" arrivalLane="D3E3_1" arrivalPos="79.20" arrivalSpeed="13.92" duration="60.80" routeLength="375.10" waitingTime="21.00" waitingCount="2" stopTime="0.00" timeLoss="33.95" rerouteNo="0" devices="tripinfo_flow1.11" vType="vtypeauto" speedFactor="1.01" vaporized=""/>
    <tripinfo id="flow6.12" depart="144.00" departLane="D4D3_0" departPos="4.10" departSpeed="0.00" departDelay="0.00" arrival="193.70" arrivalLane="D1D0_0" arrivalPos="79.20" arrivalSpeed="14.11" duration="49.70" routeLength="375.10" waitingTime="10.70" waitingCount="2" stopTime="0.00" timeLoss="23.08" rerouteNo="0" devices="tripinfo_flow6.12" vType="vtypeauto" speedFactor="1.02" vaporized=""/>
    <tripinfo id="flow1.12" depart="144.00" departLane="A3B3_0" departPos="4.10" departSpeed="0.00" departDelay="0.00" arrival="194.40" arrivalLane="D3E3_0" arrivalPos="79.20" arrivalSpeed="13.52" duration="50.40" routeLength="375.10" waitingTime="2.30" waitingCount="2" stopTime="0.00" timeLoss="22.68" rerouteNo="0" devices="tripinfo_flow1.12" vType="vtypeauto" speedFactor="0.98" vaporized=""/>
    <tripinfo id="flow0.11" depart="132.00" departLane="B4B3_0" departPos="4.10" departSpeed="0.00" departDelay="0.00" arrival="195.00" arrivalLane="B3A3_1" arrivalPos="79.20" arrivalSpeed="13.57" duration="63.00" routeLength="570.75" waitingTime="4.00" waitingCount="1" stopTime="0.00" timeLoss="18.95" rerouteNo="0" devices="tripinfo_flow0.11" vType="vtypeauto" speedFactor="0.98" vaporized=""/>