<?xml version="1.0" encoding="UTF-8"?>

<!-- generated on 2024-10-18 17:41:44 by Eclipse SUMO GUI Version 1.20.0
<configuration xmlns:xsi="http://www.w3.org/2001/XMLSchema-instance" xsi:noNamespaceSchemaLocation="http://sumo.dlr.de/xsd/sumoConfiguration.xsd">

    <input>
        <net-file value="sim_cfg_grid_2_lanes/grid.net.xml"/>
        <route-files value="sim_cfg_grid_2_lanes/grid.rou.xml"/>
    </input>

    <output>
        <tripinfo-output value="sim_cfg_grid_2_lanes/tripinfo.xml"/>
    </output>

    <time>
        <begin value="0"/>
        <end value="500"/>
        <step-length value="0.1"/>
    </time>

    <traci_server>
        <remote-port value="49384"/>
    </traci_server>

    <gui_only>
        <gui-settings-file value="sim_cfg_grid_2_lanes/gui_settings.xml"/>
    </gui_only>

</configuration>
-->

<tripinfos xmlns:xsi="http://www.w3.org/2001/XMLSchema-instance" xsi:noNamespaceSchemaLocation="http://sumo.dlr.de/xsd/tripinfo_file.xsd">
    <tripinfo id="flow4.0" depart="1.30" departLane="C0C1_0" departPos="4.10" departSpeed="0.00" departDelay="1.30" arrival="49.70" arrivalLane="C3C4_0" arrivalPos="79.20" arrivalSpeed="14.22" duration="48.40" routeLength="375.10" waitingTime="9.30" waitingCount="2" stopTime="0.00" timeLoss="22.11" rerouteNo="0" devices="tripinfo_flow4.0" vType="vtypeauto" speedFactor="1.03" vaporized=""/>
    <tripinfo id="flow4.1" depart="4.20" departLane="C0C1_0" departPos="4.10" departSpeed="0.00" departDelay="3.20" arrival="49.70" arrivalLane="C3C4_1" arrivalPos="79.20" arrivalSpeed="14.25" duration="45.50" routeLength="375.10" waitingTime="3.00" waitingCount="1" stopTime="0.00" timeLoss="19.11" rerouteNo="0" devices="tripinfo_flow4.1" vType="vtypeauto" speedFactor="1.03" vaporized=""/>
    <tripinfo id="flow4.4" depart="13.30" departLane="C0C1_0" departPos="4.10" departSpeed="0.00" departDelay="9.30" arrival="51.40" arrivalLane="C3C4_1" arrivalPos="79.20" arrivalSpeed="13.89" duration="38.10" routeLength="375.10" waitingTime="0.00" waitingCount="0" stopTime="0.00" timeLoss="11.15" rerouteNo="0" devices="tripinfo_flow4.4" vType="vtypeauto" speedFactor="1.01" vaporized=""/>
    <tripinfo id="flow4.2" depart="7.10" departLane="C0C1_0" departPos="4.10" departSpeed="0.00" departDelay="5.10" arrival="52.20" arrivalLane="C3C4_0" arrivalPos="79.20" arrivalSpeed="12.95" duration="45.10" routeLength="375.10" waitingTime="0.00" waitingCount="0" stopTime="0.00" timeLoss="16.23" rerouteNo="0" devices="tripinfo_flow4.2" vType="vtypeauto" speedFactor="0.94" vaporized=""/>
    <tripinfo id="flow4.6" depart="19.00" departLane="C0C1_0" departPos="4.10" departSpeed="0.00" departDelay="13.00" arrival="53.00" arrivalLane="C3C4_1" arrivalPos="79.20" arrivalSpeed="13.81" duration="34.00" routeLength="375.10" waitingTime="0.00" waitingCount="0" stopTime="0.00" timeLoss="6.86" rerouteNo="0" devices="tripinfo_flow4.6" vType="vtypeauto" speedFactor="1.00" vaporized=""/>
    <tripinfo id="flow4.7" depart="21.90" departLane="C0C1_0" departPos="4.10" departSpeed="0.00" departDelay="14.90" arrival="54.50" arrivalLane="C3C4_1" arrivalPos="79.20" arrivalSpeed="15.13" duration="32.60" routeLength="375.10" waitingTime="0.00" waitingCount="0" stopTime="0.00" timeLoss="7.87" rerouteNo="0" devices="tripinfo_flow4.7" vType="vtypeauto" speedFactor="1.10" vaporized=""/>
    <tripinfo id="flow4.3" depart="10.00" departLane="C0C1_0" departPos="4.10" departSpeed="0.00" departDelay="7.00" arrival="54.70" arrivalLane="C3C4_0" arrivalPos="79.20" arrivalSpeed="12.02" duration="44.70" routeLength="375.10" waitingTime="0.00" waitingCount="0" stopTime="0.00" timeLoss="13.68" rerouteNo="0" devices="tripinfo_flow4.3" vType="vtypeauto" speedFactor="0.87" vaporized=""/>
    <tripinfo id="flow4.5" depart="16.20" departLane="C0C1_0" departPos="4.10" departSpeed="0.00" departDelay="11.20" arrival="56.30" arrivalLane="C3C4_0" arrivalPos="79.20" arrivalSpeed="12.46" duration="40.10" routeLength="375.10" waitingTime="0.00" waitingCount="0" stopTime="0.00" timeLoss="10.07" rerouteNo="0" devices="tripinfo_flow4.5" vType="vtypeauto" speedFactor="0.90" vaporized=""/>
    <tripinfo id="flow4.8" depart="24.80" departLane="C0C1_0" departPos="4.10" departSpeed="0.00" departDelay="16.80" arrival="57.80" arrivalLane="C3C4_0" arrivalPos="79.20" arrivalSpeed="14.95" duration="33.00" routeLength="375.10" waitingTime="0.00" waitingCount="0" stopTime="0.00" timeLoss="7.98" rerouteNo="0" devices="tripinfo_flow4.8" vType="vtypeauto" speedFactor="1.08" vaporized=""/>
    <tripinfo id="flow1.1" depart="2.70" departLane="A3B3_0" departPos="4.10" departSpeed="0.00" departDelay="1.70" arrival="79.90" arrivalLane="D3E3_1" arrivalPos="79.20" arrivalSpeed="13.01" duration="77.20" routeLength="375.10" waitingTime="36.50" waitingCount="2" stopTime="0.00" timeLoss="48.35" rerouteNo="0" devices="tripinfo_flow1.1" vType="vtypeauto" speedFactor="0.94" vaporized=""/>
    <tripinfo id="flow1.0" depart="0.00" departLane="A3B3_0" departPos="4.10" departSpeed="0.00" departDelay="0.00" arrival="80.00" arrivalLane="D3E3_0" arrivalPos="79.20" arrivalSpeed="13.00" duration="80.00" routeLength="375.10" waitingTime="39.70" waitingCount="2" stopTime="0.00" timeLoss="51.16" rerouteNo="0" devices="tripinfo_flow1.0" vType="vtypeauto" speedFactor="0.94" vaporized=""/>
    <tripinfo id="flow1.2" depart="5.40" departLane="A3B3_0" departPos="4.10" departSpeed="0.00" departDelay="3.40" arrival="81.10" arrivalLane="D3E3_0" arrivalPos="79.20" arrivalSpeed="13.97" duration="75.70" routeLength="375.10" waitingTime="29.00" waitingCount="1" stopTime="0.00" timeLoss="47.24" rerouteNo="0" devices="tripinfo_flow1.2" vType="vtypeauto@flow1.2" speedFactor="1.01" vaporized=""/>
    <tripinfo id="flow1.3" depart="8.20" departLane="A3B3_0" departPos="4.10" departSpeed="0.00" departDelay="5.20" arrival="81.40" arrivalLane="D3E3_1" arrivalPos="79.20" arrivalSpeed="13.54" duration="73.20" routeLength="375.10" waitingTime="29.00" waitingCount="1" stopTime="0.00" timeLoss="45.49" rerouteNo="0" devices="tripinfo_flow1.3" vType="vtypeauto" speedFactor="0.97" vaporized=""/>
    <tripinfo id="flow1.4" depart="11.00" departLane="A3B3_0" departPos="4.10" departSpeed="0.00" departDelay="7.00" arrival="82.30" arrivalLane="D3E3_0" arrivalPos="79.20" arrivalSpeed="13.89" duration="71.30" routeLength="375.10" waitingTime="26.90" waitingCount="1" stopTime="0.00" timeLoss="42.93" rerouteNo="0" devices="tripinfo_flow1.4" vType="vtypeauto@flow1.4" speedFactor="1.01" vaporized=""/>
    <tripinfo id="flow1.5" depart="13.80" departLane="A3B3_0" departPos="4.10" departSpeed="0.00" departDelay="8.80" arrival="83.00" arrivalLane="D3E3_1" arrivalPos="79.20" arrivalSpeed="13.39" duration="69.20" routeLength="375.10" waitingTime="27.20" waitingCount="1" stopTime="0.00" timeLoss="41.38" rerouteNo="0" devices="tripinfo_flow1.5" vType="vtypeauto" speedFactor="0.97" vaporized=""/>
    <tripinfo id="flow1.6" depart="16.60" departLane="A3B3_0" departPos="4.10" departSpeed="0.00" departDelay="10.60" arrival="83.40" arrivalLane="D3E3_0" arrivalPos="79.20" arrivalSpeed="13.91" duration="66.80" routeLength="375.10" waitingTime="25.00" waitingCount="1" stopTime="0.00" timeLoss="40.52" rerouteNo="0" devices="tripinfo_flow1.6" vType="vtypeauto@flow1.6" speedFactor="1.01" vaporized=""/>
    <tripinfo id="flow2.0" depart="0.00" departLane="A0A1_0" departPos="4.10" departSpeed="0.00" departDelay="0.00" arrival="83.60" arrivalLane="C3D3_0" arrivalPos="79.20" arrivalSpeed="11.20" duration="83.60" routeLength="540.89" waitingTime="18.20" waitingCount="3" stopTime="0.00" timeLoss="41.60" rerouteNo="0" devices="tripinfo_flow2.0" vType="vtypeauto" speedFactor="1.01" vaporized=""/>
    <tripinfo id="flow1.8" depart="22.20" departLane="A3B3_0" departPos="4.10" departSpeed="0.00" departDelay="14.20" arrival="84.40" arrivalLane="D3E3_1" arrivalPos="79.20" arrivalSpeed="15.33" duration="62.20" routeLength="375.10" waitingTime="17.00" waitingCount="2" stopTime="0.00" timeLoss="38.56" rerouteNo="0" devices="tripinfo_flow1.8" vType="vtypeauto" speedFactor="1.14" vaporized=""/>
    <tripinfo id="flow1.7" depart="19.40" departLane="A3B3_0" departPos="4.10" departSpeed="0.00" departDelay="12.40" arrival="84.60" arrivalLane="D3E3_0" arrivalPos="79.20" arrivalSpeed="13.93" duration="65.20" routeLength="375.10" waitingTime="19.00" waitingCount="2" stopTime="0.00" timeLoss="35.26" rerouteNo="0" devices="tripinfo_flow1.7" vType="vtypeauto@flow1.7" speedFactor="1.01" vaporized=""/>
    <tripinfo id="flow2.1" depart="2.80" departLane="A0A1_0" departPos="4.10" departSpeed="0.00" departDelay="1.80" arrival="84.80" arrivalLane="C3D3_0" arrivalPos="79.20" arrivalSpeed="12.54" duration="82.00" routeLength="540.89" waitingTime="6.20" waitingCount="1" stopTime="0.00" timeLoss="34.43" rerouteNo="0" devices="tripinfo_flow2.1" vType="vtypeauto@flow2.1" speedFactor="1.01" vaporized=""/>
    <tripinfo id="flow2.2" depart="5.60" departLane="A0A1_0" departPos="4.10" departSpeed="0.00" departDelay="3.60" arrival="85.90" arrivalLane="C3D3_0" arrivalPos="79.20" arrivalSpeed="13.23" duration="80.30" routeLength="540.89" waitingTime="3.90" waitingCount="1" stopTime="0.00" timeLoss="36.79" rerouteNo="0" devices="tripinfo_flow2.2" vType="vtypeauto@flow2.2" speedFactor="2.15" vaporized=""/>
    <tripinfo id="flow1.9" depart="25.00" departLane="A3B3_0" departPos="4.10" departSpeed="0.00" departDelay="16.00" arrival="86.10" arrivalLane="D3E3_0" arrivalPos="79.20" arrivalSpeed="13.88" duration="61.10" routeLength="375.10" waitingTime="9.70" waitingCount="1" stopTime="0.00" timeLoss="33.33" rerouteNo="0" devices="tripinfo_flow1.9" vType="vtypeauto@flow1.9" speedFactor="1.01" vaporized=""/>
    <tripinfo id="flow1.10" depart="27.80" departLane="A3B3_0" departPos="4.10" departSpeed="0.00" departDelay="17.80" arrival="86.10" arrivalLane="D3E3_1" arrivalPos="79.20" arrivalSpeed="13.47" duration="58.30" routeLength="375.10" waitingTime="6.90" waitingCount="1" stopTime="0.00" timeLoss="30.46" rerouteNo="0" devices="tripinfo_flow1.10" vType="vtypeauto" speedFactor="0.97" vaporized=""/>
    <tripinfo id="flow2.7" depart="19.50" departLane="A0A1_0" departPos="4.10" departSpeed="0.00" departDelay="12.50" arrival="87.30" arrivalLane="C3D3_0" arrivalPos="79.20" arrivalSpeed="14.76" duration="67.80" routeLength="540.89" waitingTime="0.00" waitingCount="0" stopTime="0.00" timeLoss="31.42" rerouteNo="0" devices="tripinfo_flow2.7" vType="vtypeauto" speedFactor="1.17" vaporized=""/>
    <tripinfo id="flow1.11" depart="30.60" departLane="A3B3_0" departPos="4.10" departSpeed="0.00" departDelay="19.60" arrival="87.30" arrivalLane="D3E3_0" arrivalPos="79.20" arrivalSpeed="13.97" duration="56.70" routeLength="375.10" waitingTime="5.10" waitingCount="1" stopTime="0.00" timeLoss="29.82" rerouteNo="0" devices="tripinfo_flow1.11" vType="vtypeauto@flow1.11" speedFactor="1.01" vaporized=""/>
    <tripinfo id="flow1.12" depart="33.30" departLane="A3B3_0" departPos="4.10" departSpeed="0.00" departDelay="21.30" arrival="87.60" arrivalLane="D3E3_1" arrivalPos="79.20" arrivalSpeed="13.52" duration="54.30" routeLength="375.10" waitingTime="2.40" waitingCount="1" stopTime="0.00" timeLoss="26.60" rerouteNo="0" devices="tripinfo_flow1.12" vType="vtypeauto" speedFactor="0.98" vaporized=""/>
    <tripinfo id="flow2.3" depart="8.40" departLane="A0A1_0" departPos="4.10" departSpeed="0.00" departDelay="5.40" arrival="88.90" arrivalLane="C3D3_0" arrivalPos="79.20" arrivalSpeed="12.30" duration="80.50" routeLength="540.89" waitingTime="0.90" waitingCount="1" stopTime="0.00" timeLoss="32.74" rerouteNo="0" devices="tripinfo_flow2.3" vType="vtypeauto" speedFactor="0.89" vaporized=""/>
    <tripinfo id="flow1.14" depart="38.80" departLane="A3B3_0" departPos="4.10" departSpeed="0.00" departDelay="24.80" arrival="89.10" arrivalLane="D3E3_1" arrivalPos="79.20" arrivalSpeed="15.12" duration="50.30" routeLength="375.10" waitingTime="0.00" waitingCount="0" stopTime="0.00" timeLoss="25.61" rerouteNo="0" devices="tripinfo_flow1.14" vType="vtypeauto" speedFactor="1.10" vaporized=""/>
    <tripinfo id="flow1.13" depart="36.10" departLane="A3B3_0" departPos="4.10" departSpeed="0.00" departDelay="23.10" arrival="89.40" arrivalLane="D3E3_0" arrivalPos="79.20" arrivalSpeed="11.47" duration="53.30" routeLength="375.10" waitingTime="0.00" waitingCount="0" stopTime="0.00" timeLoss="20.84" rerouteNo="0" devices="tripinfo_flow1.13" vType="vtypeauto" speedFactor="0.83" vaporized=""/>
    <tripinfo id="flow2.9" depart="25.10" departLane="A0A1_0" departPos="4.10" departSpeed="0.00" departDelay="16.10" arrival="90.60" arrivalLane="C3D3_0" arrivalPos="79.20" arrivalSpeed="12.14" duration="65.50" routeLength="540.89" waitingTime="0.00" waitingCount="0" stopTime="0.00" timeLoss="17.24" rerouteNo="0" devices="tripinfo_flow2.9" vType="vtypeauto" speedFactor="0.88" vaporized=""/>
    <tripinfo id="flow1.16" depart="44.40" departLane="A3B3_0" departPos="4.10" departSpeed="0.00" departDelay="28.40" arrival="90.60" arrivalLane="D3E3_1" arrivalPos="79.20" arrivalSpeed="13.92" duration="46.20" routeLength="375.10" waitingTime="0.00" waitingCount="0" stopTime="0.00" timeLoss="19.44" rerouteNo="0" devices="tripinfo_flow1.16" vType="vtypeauto" speedFactor="1.01" vaporized=""/>
    <tripinfo id="flow1.15" depart="41.60" departLane="A3B3_0" departPos="4.10" departSpeed="0.00" departDelay="26.60" arrival="90.90" arrivalLane="D3E3_0" arrivalPos="79.20" arrivalSpeed="14.06" duration="49.30" routeLength="375.10" waitingTime="0.00" waitingCount="0" stopTime="0.00" timeLoss="22.61" rerouteNo="0" devices="tripinfo_flow1.15" vType="vtypeauto" speedFactor="1.01" vaporized=""/>
    <tripinfo id="flow2.4" depart="11.10" departLane="A0A1_0" departPos="4.10" departSpeed="0.00" departDelay="7.10" arrival="92.00" arrivalLane="C3D3_0" arrivalPos="79.20" arrivalSpeed="14.62" duration="80.90" routeLength="540.89" waitingTime="0.00" waitingCount="0" stopTime="0.00" timeLoss="44.78" rerouteNo="0" devices="tripinfo_flow2.4" vType="vtypeauto" speedFactor="1.18" vaporized=""/>
    <tripinfo id="flow1.17" depart="47.20" departLane="A3B3_0" departPos="4.10" departSpeed="0.00" departDelay="30.20" arrival="92.40" arrivalLane="D3E3_1" arrivalPos="79.20" arrivalSpeed="13.07" duration="45.20" routeLength="375.10" waitingTime="0.00" waitingCount="0" stopTime="0.00" timeLoss="16.46" rerouteNo="0" devices="tripinfo_flow1.17" vType="vtypeauto" speedFactor="0.94" vaporized=""/>
    <tripinfo id="flow2.5" depart="13.90" departLane="A0A1_0" departPos="4.10" departSpeed="0.00" departDelay="8.90" arrival="93.40" arrivalLane="C3D3_0" arrivalPos="79.20" arrivalSpeed="16.32" duration="79.50" routeLength="540.89" waitingTime="0.00" waitingCount="0" stopTime="0.00" timeLoss="43.41" rerouteNo="0" devices="tripinfo_flow2.5" vType="vtypeauto" speedFactor="1.18" vaporized=""/>
    <tripinfo id="flow2.6" depart="16.70" departLane="A0A1_0" departPos="4.10" departSpeed="0.00" departDelay="10.70" arrival="95.30" arrivalLane="C3D3_0" arrivalPos="79.20" arrivalSpeed="14.48" duration="78.60" routeLength="540.89" waitingTime="0.00" waitingCount="0" stopTime="0.00" timeLoss="37.87" rerouteNo="0" devices="tripinfo_flow2.6" vType="vtypeauto" speedFactor="1.04" vaporized=""/>
    <tripinfo id="flow2.8" depart="22.30" departLane="A0A1_0" departPos="4.10" departSpeed="0.00" departDelay="14.30" arrival="97.60" arrivalLane="C3D3_0" arrivalPos="79.20" arrivalSpeed="14.10" duration="75.30" routeLength="540.89" waitingTime="0.00" waitingCount="0" stopTime="0.00" timeLoss="33.67" rerouteNo="0" devices="tripinfo_flow2.8" vType="vtypeauto" speedFactor="1.02" vaporized=""/>
    <tripinfo id="flow2.10" depart="27.90" departLane="A0A1_0" departPos="4.10" departSpeed="0.00" departDelay="17.90" arrival="100.40" arrivalLane="C3D3_0" arrivalPos="79.20" arrivalSpeed="12.99" duration="72.50" routeLength="540.89" waitingTime="0.00" waitingCount="0" stopTime="0.00" timeLoss="27.17" rerouteNo="0" devices="tripinfo_flow2.10" vType="vtypeauto" speedFactor="0.94" vaporized=""/>
    <tripinfo id="flow2.11" depart="30.70" departLane="A0A1_0" departPos="4.10" departSpeed="0.00" departDelay="19.70" arrival="101.90" arrivalLane="C3D3_0" arrivalPos="79.20" arrivalSpeed="15.07" duration="71.20" routeLength="540.89" waitingTime="0.00" waitingCount="0" stopTime="0.00" timeLoss="32.03" rerouteNo="0" devices="tripinfo_flow2.11" vType="vtypeauto" speedFactor="1.09" vaporized=""/>
    <tripinfo id="flow0.0" depart="0.00" departLane="B4B3_0" departPos="4.10" departSpeed="0.00" departDelay="0.00" arrival="104.10" arrivalLane="B3A3_1" arrivalPos="79.20" arrivalSpeed="14.72" duration="104.10" routeLength="570.75" waitingTime="51.20" waitingCount="1" stopTime="0.00" timeLoss="63.27" rerouteNo="0" devices="tripinfo_flow0.0" vType="vtypeauto" speedFactor="1.06" vaporized=""/>
    <tripinfo id="flow2.13" depart="36.30" departLane="A0A1_0" departPos="4.10" departSpeed="0.00" departDelay="23.30" arrival="105.10" arrivalLane="C3D3_0" arrivalPos="79.20" arrivalSpeed="12.69" duration="68.80" routeLength="540.89" waitingTime="0.00" waitingCount="0" stopTime="0.00" timeLoss="22.61" rerouteNo="0" devices="tripinfo_flow2.13" vType="vtypeauto" speedFactor="0.92" vaporized=""/>
    <tripinfo id="flow2.12" depart="33.50" departLane="A0A1_0" departPos="4.10" departSpeed="0.00" departDelay="21.50" arrival="106.80" arrivalLane="C3D3_0" arrivalPos="79.20" arrivalSpeed="13.86" duration="73.30" routeLength="540.89" waitingTime="0.00" waitingCount="0" stopTime="0.00" timeLoss="30.76" rerouteNo="0" devices="tripinfo_flow2.12" vType="vtypeauto" speedFactor="1.00" vaporized=""/>
    <tripinfo id="flow2.14" depart="39.10" departLane="A0A1_0" departPos="4.10" departSpeed="0.00" departDelay="25.10" arrival="108.50" arrivalLane="C3D3_0" arrivalPos="79.20" arrivalSpeed="14.78" duration="69.40" routeLength="540.89" waitingTime="0.00" waitingCount="0" stopTime="0.00" timeLoss="29.45" rerouteNo="0" devices="tripinfo_flow2.14" vType="vtypeauto" speedFactor="1.06" vaporized=""/>
    <tripinfo id="flow2.15" depart="41.90" departLane="A0A1_0" departPos="4.10" departSpeed="0.00" departDelay="26.90" arrival="110.90" arrivalLane="C3D3_0" arrivalPos="79.20" arrivalSpeed="14.34" duration="69.00" routeLength="540.89" waitingTime="0.00" waitingCount="0" stopTime="0.00" timeLoss="27.87" rerouteNo="0" devices="tripinfo_flow2.15" vType="vtypeauto" speedFactor="1.03" vaporized=""/>
    <tripinfo id="flow2.16" depart="44.70" departLane="A0A1_0" departPos="4.10" departSpeed="0.00" departDelay="28.70" arrival="112.90" arrivalLane="C3D3_0" arrivalPos="79.20" arrivalSpeed="15.12" duration="68.20" routeLength="540.89" waitingTime="0.00" waitingCount="0" stopTime="0.00" timeLoss="29.30" rerouteNo="0" devices="tripinfo_flow2.16" vType="vtypeauto" speedFactor="1.10" vaporized=""/>
    <tripinfo id="flow0.8" depart="14.40" departLane="B4B3_0" departPos="4.10" departSpeed="0.00" departDelay="6.40" arrival="113.90" arrivalLane="B3A3_1" arrivalPos="79.20" arrivalSpeed="12.43" duration="99.50" routeLength="570.75" waitingTime="36.60" waitingCount="1" stopTime="0.00" timeLoss="51.41" rerouteNo="0" devices="tripinfo_flow0.8" vType="vtypeauto" speedFactor="0.90" vaporized=""/>
    <tripinfo id="flow0.9" depart="17.30" departLane="B4B3_0" departPos="4.10" departSpeed="0.00" departDelay="8.30" arrival="115.10" arrivalLane="B3A3_1" arrivalPos="79.20" arrivalSpeed="13.92" duration="97.80" routeLength="570.75" waitingTime="31.10" waitingCount="2" stopTime="0.00" timeLoss="54.87" rerouteNo="0" devices="tripinfo_flow0.9" vType="vtypeauto@flow0.9" speedFactor="1.01" vaporized=""/>
    <tripinfo id="flow0.1" depart="2.80" departLane="B4B3_0" departPos="4.10" departSpeed="0.00" departDelay="1.80" arrival="117.80" arrivalLane="B3A3_1" arrivalPos="79.20" arrivalSpeed="12.19" duration="115.00" routeLength="570.75" waitingTime="45.90" waitingCount="2" stopTime="0.00" timeLoss="66.18" rerouteNo="0" devices="tripinfo_flow0.1" vType="vtypeauto" speedFactor="0.89" vaporized=""/>
    <tripinfo id="flow0.11" depart="20.20" departLane="B4B3_0" departPos="4.10" departSpeed="0.00" departDelay="9.20" arrival="119.60" arrivalLane="B3A3_1" arrivalPos="79.20" arrivalSpeed="13.94" duration="99.40" routeLength="570.75" waitingTime="24.90" waitingCount="2" stopTime="0.00" timeLoss="56.35" rerouteNo="0" devices="tripinfo_flow0.11" vType="vtypeauto@flow0.11" speedFactor="1.01" vaporized=""/>
    <tripinfo id="flow1.19" depart="52.80" departLane="A3B3_0" departPos="4.10" departSpeed="0.00" departDelay="33.80" arrival="136.30" arrivalLane="D3E3_1" arrivalPos="79.20" arrivalSpeed="17.01" duration="83.50" routeLength="375.10" waitingTime="36.90" waitingCount="4" stopTime="0.00" timeLoss="61.42" rerouteNo="0" devices="tripinfo_flow1.19" vType="vtypeauto" speedFactor="1.23" vaporized=""/>
    <tripinfo id="flow1.18" depart="50.00" departLane="A3B3_0" departPos="4.10" departSpeed="0.00" departDelay="32.00" arrival="137.20" arrivalLane="D3E3_0" arrivalPos="79.20" arrivalSpeed="11.33" duration="87.20" routeLength="375.10" waitingTime="39.60" waitingCount="4" stopTime="0.00" timeLoss="54.27" rerouteNo="0" devices="tripinfo_flow1.18" vType="vtypeauto" speedFactor="0.82" vaporized=""/>
    <tripinfo id="flow1.21" depart="58.30" departLane="A3B3_0" departPos="4.10" departSpeed="0.00" departDelay="37.30" arrival="138.40" arrivalLane="D3E3_1" arrivalPos="79.20" arrivalSpeed="13.33" duration="80.10" routeLength="375.10" waitingTime="17.30" waitingCount="4" stopTime="0.00" timeLoss="52.08" rerouteNo="0" devices="tripinfo_flow1.21" vType="vtypeauto" speedFactor="0.97" vaporized=""/>
    <tripinfo id="flow1.20" depart="55.60" departLane="A3B3_0" departPos="4.10" departSpeed="0.00" departDelay="35.60" arrival="138.70" arrivalLane="D3E3_0" arrivalPos="79.20" arrivalSpeed="13.89" duration="83.10" routeLength="375.10" waitingTime="23.60" waitingCount="4" stopTime="0.00" timeLoss="56.89" rerouteNo="0" devices="tripinfo_flow1.20" vType="vtypeauto@flow1.20" speedFactor="1.01" vaporized=""/>
    <tripinfo id="flow1.22" depart="61.10" departLane="A3B3_0" departPos="4.10" departSpeed="0.00" departDelay="39.10" arrival="139.90" arrivalLane="D3E3_0" arrivalPos="79.20" arrivalSpeed="13.94" duration="78.80" routeLength="375.10" waitingTime="16.80" waitingCount="2" stopTime="0.00" timeLoss="52.34" rerouteNo="0" devices="tripinfo_flow1.22" vType="vtypeauto@flow1.22" speedFactor="1.01" vaporized=""/>
    <tripinfo id="flow1.23" depart="63.80" departLane="A3B3_0" departPos="4.10" departSpeed="0.00" departDelay="40.80" arrival="139.90" arrivalLane="D3E3_1" arrivalPos="79.20" arrivalSpeed="13.67" duration="76.10" routeLength="375.10" waitingTime="9.60" waitingCount="1" stopTime="0.00" timeLoss="48.85" rerouteNo="0" devices="tripinfo_flow1.23" vType="vtypeauto" speedFactor="0.99" vaporized=""/>
    <tripinfo id="flow1.24" depart="66.60" departLane="A3B3_0" departPos="4.10" departSpeed="0.00" departDelay="42.60" arrival="141.00" arrivalLane="D3E3_0" arrivalPos="79.20" arrivalSpeed="13.96" duration="74.40" routeLength="375.10" waitingTime="12.00" waitingCount="2" stopTime="0.00" timeLoss="47.34" rerouteNo="0" devices="tripinfo_flow1.24" vType="vtypeauto@flow1.24" speedFactor="1.01" vaporized=""/>
    <tripinfo id="flow1.25" depart="69.40" departLane="A3B3_0" departPos="4.10" departSpeed="0.00" departDelay="44.40" arrival="141.30" arrivalLane="D3E3_1" arrivalPos="79.20" arrivalSpeed="15.02" duration="71.90" routeLength="375.10" waitingTime="5.40" waitingCount="1" stopTime="0.00" timeLoss="47.12" rerouteNo="0" devices="tripinfo_flow1.25" vType="vtypeauto" speedFactor="1.09" vaporized=""/>
    <tripinfo id="flow1.26" depart="72.20" departLane="A3B3_0" departPos="4.10" departSpeed="0.00" departDelay="46.20" arrival="142.20" arrivalLane="D3E3_0" arrivalPos="79.20" arrivalSpeed="13.89" duration="70.00" routeLength="375.10" waitingTime="7.30" waitingCount="2" stopTime="0.00" timeLoss="43.40" rerouteNo="0" devices="tripinfo_flow1.26" vType="vtypeauto@flow1.26" speedFactor="1.01" vaporized=""/>
    <tripinfo id="flow1.27" depart="74.90" departLane="A3B3_0" departPos="4.10" departSpeed="0.00" departDelay="47.90" arrival="143.30" arrivalLane="D3E3_1" arrivalPos="79.20" arrivalSpeed="12.46" duration="68.40" routeLength="375.10" waitingTime="1.10" waitingCount="1" stopTime="0.00" timeLoss="38.38" rerouteNo="0" devices="tripinfo_flow1.27" vType="vtypeauto" speedFactor="0.90" vaporized=""/>
    <tripinfo id="flow1.28" depart="77.60" departLane="A3B3_0" departPos="4.10" departSpeed="0.00" departDelay="49.60" arrival="144.10" arrivalLane="D3E3_0" arrivalPos="79.20" arrivalSpeed="12.01" duration="66.50" routeLength="375.10" waitingTime="2.30" waitingCount="1" stopTime="0.00" timeLoss="35.51" rerouteNo="0" devices="tripinfo_flow1.28" vType="vtypeauto" speedFactor="0.87" vaporized=""/>
    <tripinfo id="flow1.29" depart="80.40" departLane="A3B3_0" departPos="4.10" departSpeed="0.00" departDelay="51.40" arrival="144.80" arrivalLane="D3E3_1" arrivalPos="79.20" arrivalSpeed="14.82" duration="64.40" routeLength="375.10" waitingTime="0.00" waitingCount="0" stopTime="0.00" timeLoss="39.03" rerouteNo="0" devices="tripinfo_flow1.29" vType="vtypeauto" speedFactor="1.07" vaporized=""/>
    <tripinfo id="flow1.30" depart="82.70" departLane="A3B3_0" departPos="4.10" departSpeed="0.00" departDelay="52.70" arrival="145.60" arrivalLane="D3E3_0" arrivalPos="79.20" arrivalSpeed="14.29" duration="62.90" routeLength="375.10" waitingTime="0.40" waitingCount="1" stopTime="0.00" timeLoss="36.81" rerouteNo="0" devices="tripinfo_flow1.30" vType="vtypeauto" speedFactor="1.04" vaporized=""/>
    <tripinfo id="flow1.31" depart="85.50" departLane="A3B3_0" departPos="4.10" departSpeed="0.00" departDelay="54.50" arrival="146.20" arrivalLane="D3E3_1" arrivalPos="79.20" arrivalSpeed="14.70" duration="60.70" routeLength="375.10" waitingTime="0.00" waitingCount="0" stopTime="0.00" timeLoss="35.36" rerouteNo="0" devices="tripinfo_flow1.31" vType="vtypeauto" speedFactor="1.07" vaporized=""/>
    <tripinfo id="flow1.32" depart="87.20" departLane="A3B3_0" departPos="4.10" departSpeed="0.00" departDelay="55.20" arrival="147.10" arrivalLane="D3E3_0" arrivalPos="79.20" arrivalSpeed="13.36" duration="59.90" routeLength="375.10" waitingTime="0.00" waitingCount="0" stopTime="0.00" timeLoss="32.03" rerouteNo="0" devices="tripinfo_flow1.32" vType="vtypeauto" speedFactor="0.97" vaporized=""/>
    <tripinfo id="flow1.33" depart="90.00" departLane="A3B3_0" departPos="4.10" departSpeed="0.00" departDelay="57.00" arrival="147.90" arrivalLane="D3E3_1" arrivalPos="79.20" arrivalSpeed="13.42" duration="57.90" routeLength="375.10" waitingTime="0.00" waitingCount="0" stopTime="0.00" timeLoss="29.99" rerouteNo="0" devices="tripinfo_flow1.33" vType="vtypeauto" speedFactor="0.97" vaporized=""/>
    <tripinfo id="flow1.34" depart="91.20" departLane="A3B3_0" departPos="4.10" departSpeed="0.00" departDelay="57.20" arrival="148.60" arrivalLane="D3E3_0" arrivalPos="79.20" arrivalSpeed="15.61" duration="57.40" routeLength="375.10" waitingTime="0.00" waitingCount="0" stopTime="0.00" timeLoss="33.39" rerouteNo="0" devices="tripinfo_flow1.34" vType="vtypeauto" speedFactor="1.13" vaporized=""/>
    <tripinfo id="flow1.35" depart="94.00" departLane="A3B3_0" departPos="4.10" departSpeed="0.00" departDelay="59.00" arrival="149.40" arrivalLane="D3E3_1" arrivalPos="79.20" arrivalSpeed="13.48" duration="55.40" routeLength="375.10" waitingTime="0.00" waitingCount="0" stopTime="0.00" timeLoss="27.64" rerouteNo="0" devices="tripinfo_flow1.35" vType="vtypeauto" speedFactor="0.97" vaporized=""/>
    <tripinfo id="flow1.36" depart="94.50" departLane="A3B3_0" departPos="4.10" departSpeed="0.00" departDelay="58.50" arrival="150.20" arrivalLane="D3E3_0" arrivalPos="79.20" arrivalSpeed="13.51" duration="55.70" routeLength="375.10" waitingTime="0.00" waitingCount="0" stopTime="0.00" timeLoss="28.08" rerouteNo="0" devices="tripinfo_flow1.36" vType="vtypeauto" speedFactor="0.98" vaporized=""/>
    <tripinfo id="flow4.10" depart="30.60" departLane="C0C1_0" departPos="4.10" departSpeed="0.00" departDelay="20.60" arrival="151.90" arrivalLane="C3C4_1" arrivalPos="79.20" arrivalSpeed="13.25" duration="121.30" routeLength="375.10" waitingTime="80.70" waitingCount="2" stopTime="0.00" timeLoss="93.03" rerouteNo="0" devices="tripinfo_flow4.10" vType="vtypeauto" speedFactor="0.96" vaporized=""/>
    <tripinfo id="flow1.38" depart="99.50" departLane="A3B3_0" departPos="4.10" departSpeed="0.00" departDelay="61.50" arrival="152.00" arrivalLane="D3E3_0" arrivalPos="79.20" arrivalSpeed="12.68" duration="52.50" routeLength="375.10" waitingTime="0.00" waitingCount="0" stopTime="0.00" timeLoss="22.92" rerouteNo="0" devices="tripinfo_flow1.38" vType="vtypeauto" speedFactor="0.92" vaporized=""/>
    <tripinfo id="flow1.37" depart="98.20" departLane="A3B3_0" departPos="4.10" departSpeed="0.00" departDelay="61.20" arrival="152.80" arrivalLane="D3E3_1" arrivalPos="79.20" arrivalSpeed="10.41" duration="54.60" routeLength="375.10" waitingTime="0.00" waitingCount="0" stopTime="0.00" timeLoss="18.71" rerouteNo="0" devices="tripinfo_flow1.37" vType="vtypeauto" speedFactor="0.75" vaporized=""/>
    <tripinfo id="flow4.12" depart="36.40" departLane="C0C1_0" departPos="4.10" departSpeed="0.00" departDelay="24.40" arrival="153.50" arrivalLane="C3C4_1" arrivalPos="79.20" arrivalSpeed="13.90" duration="117.10" routeLength="375.10" waitingTime="68.60" waitingCount="2" stopTime="0.00" timeLoss="90.20" rerouteNo="0" devices="tripinfo_flow4.12" vType="vtypeauto" speedFactor="1.01" vaporized=""/>