<?xml version="1.0" encoding="UTF-8"?>

<!-- generated on 2024-10-30 18:50:25 by Eclipse SUMO sumo Version 1.20.0
<configuration xmlns:xsi="http://www.w3.org/2001/XMLSchema-instance" xsi:noNamespaceSchemaLocation="http://sumo.dlr.de/xsd/sumoConfiguration.xsd">

    <input>
        <net-file value="./sim_cfg_grid_2_lanes/grid.net.xml"/>
        <route-files value="./sim_cfg_grid_2_lanes/3x1.rou.xml"/>
    </input>

    <output>
        <tripinfo-output value="./sim_cfg_grid_2_lanes/tripinfo-platooning_0.342.xml"/>
    </output>

    <time>
        <begin value="0"/>
        <end value="500"/>
        <step-length value="0.1"/>
    </time>

    <traci_server>
        <remote-port value="50031"/>
    </traci_server>

    <gui_only>
        <gui-settings-file value="./sim_cfg_grid_2_lanes/gui_settings.xml"/>
    </gui_only>

</configuration>
-->

<tripinfos xmlns:xsi="http://www.w3.org/2001/XMLSchema-instance" xsi:noNamespaceSchemaLocation="http://sumo.dlr.de/xsd/tripinfo_file.xsd">
    <tripinfo id="flow1.1" depart="2.70" departLane="A3B3_0" departPos="4.10" departSpeed="0.00" departDelay="1.70" arrival="50.60" arrivalLane="D3E3_1" arrivalPos="79.20" arrivalSpeed="14.19" duration="47.90" routeLength="375.10" waitingTime="8.40" waitingCount="2" stopTime="0.00" timeLoss="21.61" rerouteNo="0" devices="tripinfo_flow1.1" vType="vtypeauto" speedFactor="1.03" vaporized=""/>
    <tripinfo id="flow1.0" depart="0.00" departLane="A3B3_0" departPos="4.10" departSpeed="0.00" departDelay="0.00" arrival="50.90" arrivalLane="D3E3_0" arrivalPos="79.20" arrivalSpeed="13.03" duration="50.90" routeLength="375.10" waitingTime="10.70" waitingCount="2" stopTime="0.00" timeLoss="22.06" rerouteNo="0" devices="tripinfo_flow1.0" vType="vtypeauto" speedFactor="0.94" vaporized=""/>
    <tripinfo id="flow1.3" depart="8.20" departLane="A3B3_0" departPos="4.10" departSpeed="0.00" departDelay="5.20" arrival="52.00" arrivalLane="D3E3_1" arrivalPos="79.20" arrivalSpeed="15.04" duration="43.80" routeLength="375.10" waitingTime="0.00" waitingCount="0" stopTime="0.00" timeLoss="19.03" rerouteNo="0" devices="tripinfo_flow1.3" vType="vtypeauto" speedFactor="1.09" vaporized=""/>
    <tripinfo id="flow1.2" depart="5.40" departLane="A3B3_0" departPos="4.10" departSpeed="0.00" departDelay="3.40" arrival="52.80" arrivalLane="D3E3_0" arrivalPos="79.20" arrivalSpeed="12.20" duration="47.40" routeLength="375.10" waitingTime="0.00" waitingCount="0" stopTime="0.00" timeLoss="16.91" rerouteNo="0" devices="tripinfo_flow1.2" vType="vtypeauto" speedFactor="0.89" vaporized=""/>
    <tripinfo id="flow1.6" depart="16.60" departLane="A3B3_0" departPos="4.10" departSpeed="0.00" departDelay="10.60" arrival="53.40" arrivalLane="D3E3_1" arrivalPos="79.20" arrivalSpeed="16.09" duration="36.80" routeLength="375.10" waitingTime="0.00" waitingCount="0" stopTime="0.00" timeLoss="13.47" rerouteNo="0" devices="tripinfo_flow1.6" vType="vtypeauto" speedFactor="1.16" vaporized=""/>
    <tripinfo id="flow1.4" depart="11.00" departLane="A3B3_0" departPos="4.10" departSpeed="0.00" departDelay="7.00" arrival="54.30" arrivalLane="D3E3_0" arrivalPos="79.20" arrivalSpeed="14.80" duration="43.30" routeLength="375.10" waitingTime="0.00" waitingCount="0" stopTime="0.00" timeLoss="19.23" rerouteNo="0" devices="tripinfo_flow1.4" vType="vtypeauto" speedFactor="1.12" vaporized=""/>
    <tripinfo id="flow1.7" depart="19.40" departLane="A3B3_0" departPos="4.10" departSpeed="0.00" departDelay="12.40" arrival="55.20" arrivalLane="D3E3_1" arrivalPos="79.20" arrivalSpeed="13.50" duration="35.80" routeLength="375.10" waitingTime="0.00" waitingCount="0" stopTime="0.00" timeLoss="8.08" rerouteNo="0" devices="tripinfo_flow1.7" vType="vtypeauto" speedFactor="0.97" vaporized=""/>
    <tripinfo id="flow1.5" depart="13.80" departLane="A3B3_0" departPos="4.10" departSpeed="0.00" departDelay="8.80" arrival="56.10" arrivalLane="D3E3_0" arrivalPos="79.20" arrivalSpeed="12.13" duration="42.30" routeLength="375.10" waitingTime="0.00" waitingCount="0" stopTime="0.00" timeLoss="11.53" rerouteNo="0" devices="tripinfo_flow1.5" vType="vtypeauto" speedFactor="0.88" vaporized=""/>
    <tripinfo id="flow1.8" depart="22.10" departLane="A3B3_0" departPos="4.10" departSpeed="0.00" departDelay="14.10" arrival="57.80" arrivalLane="D3E3_0" arrivalPos="79.20" arrivalSpeed="12.02" duration="35.70" routeLength="375.10" waitingTime="0.00" waitingCount="0" stopTime="0.00" timeLoss="4.69" rerouteNo="0" devices="tripinfo_flow1.8" vType="vtypeauto" speedFactor="0.87" vaporized=""/>
    <tripinfo id="flow2.0" depart="0.00" departLane="A0A1_0" departPos="4.10" departSpeed="0.00" departDelay="0.00" arrival="59.10" arrivalLane="C3D3_0" arrivalPos="79.20" arrivalSpeed="13.93" duration="59.10" routeLength="540.89" waitingTime="5.70" waitingCount="1" stopTime="0.00" timeLoss="17.08" rerouteNo="0" devices="tripinfo_flow2.0" vType="vtypeauto" speedFactor="1.01" vaporized=""/>
    <tripinfo id="flow1.9" depart="24.90" departLane="A3B3_0" departPos="4.10" departSpeed="0.00" departDelay="15.90" arrival="59.30" arrivalLane="D3E3_0" arrivalPos="79.20" arrivalSpeed="14.91" duration="34.40" routeLength="375.10" waitingTime="0.00" waitingCount="0" stopTime="0.00" timeLoss="10.48" rerouteNo="0" devices="tripinfo_flow1.9" vType="vtypeauto" speedFactor="1.13" vaporized=""/>
    <tripinfo id="flow1.10" depart="27.70" departLane="A3B3_0" departPos="4.10" departSpeed="0.00" departDelay="17.70" arrival="60.70" arrivalLane="D3E3_0" arrivalPos="79.20" arrivalSpeed="16.03" duration="33.00" routeLength="375.10" waitingTime="0.00" waitingCount="0" stopTime="0.00" timeLoss="9.52" rerouteNo="0" devices="tripinfo_flow1.10" vType="vtypeauto" speedFactor="1.15" vaporized=""/>
    <tripinfo id="flow1.12" depart="33.30" departLane="A3B3_0" departPos="4.10" departSpeed="0.00" departDelay="21.30" arrival="72.50" arrivalLane="D3E3_1" arrivalPos="79.20" arrivalSpeed="16.29" duration="39.20" routeLength="375.10" waitingTime="6.40" waitingCount="1" stopTime="0.00" timeLoss="16.29" rerouteNo="0" devices="tripinfo_flow1.12" vType="vtypeauto" speedFactor="1.18" vaporized=""/>
    <tripinfo id="flow1.11" depart="30.50" departLane="A3B3_0" departPos="4.10" departSpeed="0.00" departDelay="19.50" arrival="74.10" arrivalLane="D3E3_0" arrivalPos="79.20" arrivalSpeed="13.73" duration="43.60" routeLength="375.10" waitingTime="8.50" waitingCount="1" stopTime="0.00" timeLoss="16.37" rerouteNo="0" devices="tripinfo_flow1.11" vType="vtypeauto" speedFactor="0.99" vaporized=""/>
    <tripinfo id="flow1.14" depart="38.90" departLane="A3B3_0" departPos="4.10" departSpeed="0.00" departDelay="24.90" arrival="75.00" arrivalLane="D3E3_1" arrivalPos="79.20" arrivalSpeed="14.41" duration="36.10" routeLength="375.10" waitingTime="0.00" waitingCount="0" stopTime="0.00" timeLoss="10.07" rerouteNo="0" devices="tripinfo_flow1.14" vType="vtypeauto" speedFactor="1.04" vaporized=""/>
    <tripinfo id="flow1.13" depart="36.10" departLane="A3B3_0" departPos="4.10" departSpeed="0.00" departDelay="23.10" arrival="75.60" arrivalLane="D3E3_0" arrivalPos="79.20" arrivalSpeed="14.21" duration="39.50" routeLength="375.10" waitingTime="0.00" waitingCount="0" stopTime="0.00" timeLoss="13.25" rerouteNo="0" devices="tripinfo_flow1.13" vType="vtypeauto" speedFactor="1.03" vaporized=""/>
    <tripinfo id="flow1.15" depart="41.60" departLane="A3B3_0" departPos="4.10" departSpeed="0.00" departDelay="26.60" arrival="77.20" arrivalLane="D3E3_0" arrivalPos="79.20" arrivalSpeed="13.83" duration="35.60" routeLength="375.10" waitingTime="0.00" waitingCount="0" stopTime="0.00" timeLoss="8.50" rerouteNo="0" devices="tripinfo_flow1.15" vType="vtypeauto" speedFactor="1.00" vaporized=""/>
    <tripinfo id="flow1.17" depart="47.10" departLane="A3B3_0" departPos="4.10" departSpeed="0.00" departDelay="30.10" arrival="77.70" arrivalLane="D3E3_1" arrivalPos="79.20" arrivalSpeed="14.00" duration="30.60" routeLength="375.10" waitingTime="0.00" waitingCount="0" stopTime="0.00" timeLoss="3.98" rerouteNo="0" devices="tripinfo_flow1.17" vType="vtypeauto" speedFactor="1.02" vaporized=""/>
    <tripinfo id="flow2.1" depart="2.80" departLane="A0A1_0" departPos="4.10" departSpeed="0.00" departDelay="1.80" arrival="79.60" arrivalLane="C3D3_0" arrivalPos="79.20" arrivalSpeed="11.43" duration="76.80" routeLength="540.89" waitingTime="11.50" waitingCount="1" stopTime="0.00" timeLoss="25.72" rerouteNo="0" devices="tripinfo_flow2.1" vType="vtypeauto" speedFactor="0.83" vaporized=""/>
    <tripinfo id="flow1.16" depart="44.30" departLane="A3B3_0" departPos="4.10" departSpeed="0.00" departDelay="28.30" arrival="80.60" arrivalLane="D3E3_0" arrivalPos="79.20" arrivalSpeed="11.76" duration="36.30" routeLength="375.10" waitingTime="0.00" waitingCount="0" stopTime="0.00" timeLoss="4.51" rerouteNo="0" devices="tripinfo_flow1.16" vType="vtypeauto" speedFactor="0.85" vaporized=""/>
    <tripinfo id="flow2.2" depart="5.60" departLane="A0A1_0" departPos="4.10" departSpeed="0.00" departDelay="3.60" arrival="80.80" arrivalLane="C3D3_0" arrivalPos="79.20" arrivalSpeed="13.28" duration="75.20" routeLength="540.89" waitingTime="7.20" waitingCount="1" stopTime="0.00" timeLoss="31.10" rerouteNo="0" devices="tripinfo_flow2.2" vType="vtypeauto@flow2.2" speedFactor="1.01" vaporized=""/>
    <tripinfo id="flow2.3" depart="8.40" departLane="A0A1_0" departPos="4.10" departSpeed="0.00" departDelay="5.40" arrival="82.00" arrivalLane="C3D3_0" arrivalPos="79.20" arrivalSpeed="13.95" duration="73.60" routeLength="540.89" waitingTime="5.10" waitingCount="1" stopTime="0.00" timeLoss="32.68" rerouteNo="0" devices="tripinfo_flow2.3" vType="vtypeauto@flow2.3" speedFactor="1.01" vaporized=""/>
    <tripinfo id="flow2.4" depart="11.30" departLane="A0A1_0" departPos="4.10" departSpeed="0.00" departDelay="7.30" arrival="83.10" arrivalLane="C3D3_0" arrivalPos="79.20" arrivalSpeed="13.88" duration="71.80" routeLength="540.89" waitingTime="3.10" waitingCount="1" stopTime="0.00" timeLoss="29.62" rerouteNo="0" devices="tripinfo_flow2.4" vType="vtypeauto@flow2.4" speedFactor="1.01" vaporized=""/>
    <tripinfo id="flow2.5" depart="14.10" departLane="A0A1_0" departPos="4.10" departSpeed="0.00" departDelay="9.10" arrival="84.20" arrivalLane="C3D3_0" arrivalPos="79.20" arrivalSpeed="15.01" duration="70.10" routeLength="540.89" waitingTime="1.10" waitingCount="1" stopTime="0.00" timeLoss="29.26" rerouteNo="0" devices="tripinfo_flow2.5" vType="vtypeauto@flow2.5" speedFactor="2.15" vaporized=""/>
    <tripinfo id="flow2.9" depart="25.20" departLane="A0A1_0" departPos="4.10" departSpeed="0.00" departDelay="16.20" arrival="85.90" arrivalLane="C3D3_0" arrivalPos="79.20" arrivalSpeed="12.89" duration="60.70" routeLength="540.89" waitingTime="0.30" waitingCount="1" stopTime="0.00" timeLoss="15.03" rerouteNo="0" devices="tripinfo_flow2.9" vType="vtypeauto" speedFactor="0.93" vaporized=""/>
    <tripinfo id="flow2.10" depart="27.90" departLane="A0A1_0" departPos="4.10" departSpeed="0.00" departDelay="17.90" arrival="87.50" arrivalLane="C3D3_0" arrivalPos="79.20" arrivalSpeed="13.94" duration="59.60" routeLength="540.89" waitingTime="0.00" waitingCount="0" stopTime="0.00" timeLoss="17.24" rerouteNo="0" devices="tripinfo_flow2.10" vType="vtypeauto" speedFactor="1.01" vaporized=""/>
    <tripinfo id="flow2.11" depart="30.70" departLane="A0A1_0" departPos="4.10" departSpeed="0.00" departDelay="19.70" arrival="89.70" arrivalLane="C3D3_0" arrivalPos="79.20" arrivalSpeed="14.04" duration="59.00" routeLength="540.89" waitingTime="0.00" waitingCount="0" stopTime="0.00" timeLoss="17.34" rerouteNo="0" devices="tripinfo_flow2.11" vType="vtypeauto" speedFactor="1.02" vaporized=""/>
    <tripinfo id="flow2.6" depart="16.90" departLane="A0A1_0" departPos="4.10" departSpeed="0.00" departDelay="10.90" arrival="91.70" arrivalLane="C3D3_0" arrivalPos="79.20" arrivalSpeed="14.04" duration="74.80" routeLength="540.89" waitingTime="0.00" waitingCount="0" stopTime="0.00" timeLoss="32.95" rerouteNo="0" devices="tripinfo_flow2.6" vType="vtypeauto" speedFactor="1.02" vaporized=""/>
    <tripinfo id="flow2.12" depart="33.40" departLane="A0A1_0" departPos="4.10" departSpeed="0.00" departDelay="21.40" arrival="93.60" arrivalLane="C3D3_0" arrivalPos="79.20" arrivalSpeed="15.27" duration="60.20" routeLength="540.89" waitingTime="0.20" waitingCount="1" stopTime="0.00" timeLoss="21.64" rerouteNo="0" devices="tripinfo_flow2.12" vType="vtypeauto" speedFactor="1.10" vaporized=""/>
    <tripinfo id="flow2.7" depart="19.60" departLane="A0A1_0" departPos="4.10" departSpeed="0.00" departDelay="12.60" arrival="97.00" arrivalLane="C3D3_0" arrivalPos="79.20" arrivalSpeed="12.33" duration="77.40" routeLength="540.89" waitingTime="0.00" waitingCount="0" stopTime="0.00" timeLoss="29.55" rerouteNo="0" devices="tripinfo_flow2.7" vType="vtypeauto" speedFactor="0.89" vaporized=""/>
    <tripinfo id="flow2.8" depart="22.40" departLane="A0A1_0" departPos="4.10" departSpeed="0.00" departDelay="14.40" arrival="99.10" arrivalLane="C3D3_0" arrivalPos="79.20" arrivalSpeed="12.63" duration="76.70" routeLength="540.89" waitingTime="0.00" waitingCount="0" stopTime="0.00" timeLoss="30.33" rerouteNo="0" devices="tripinfo_flow2.8" vType="vtypeauto" speedFactor="0.92" vaporized=""/>
    <tripinfo id="flow2.13" depart="36.20" departLane="A0A1_0" departPos="4.10" departSpeed="0.00" departDelay="23.20" arrival="101.20" arrivalLane="C3D3_0" arrivalPos="79.20" arrivalSpeed="13.28" duration="65.00" routeLength="540.89" waitingTime="0.00" waitingCount="0" stopTime="0.00" timeLoss="20.41" rerouteNo="0" devices="tripinfo_flow2.13" vType="vtypeauto" speedFactor="0.96" vaporized=""/>
    <tripinfo id="flow2.14" depart="39.00" departLane="A0A1_0" departPos="4.10" departSpeed="0.00" departDelay="25.00" arrival="102.90" arrivalLane="C3D3_0" arrivalPos="79.20" arrivalSpeed="14.44" duration="63.90" routeLength="540.89" waitingTime="0.00" waitingCount="0" stopTime="0.00" timeLoss="23.16" rerouteNo="0" devices="tripinfo_flow2.14" vType="vtypeauto" speedFactor="1.04" vaporized=""/>
    <tripinfo id="flow0.0" depart="0.00" departLane="B4B3_0" departPos="4.10" departSpeed="0.00" departDelay="0.00" arrival="104.10" arrivalLane="B3A3_1" arrivalPos="79.20" arrivalSpeed="14.72" duration="104.10" routeLength="570.75" waitingTime="51.20" waitingCount="1" stopTime="0.00" timeLoss="63.34" rerouteNo="0" devices="tripinfo_flow0.0" vType="vtypeauto" speedFactor="1.06" vaporized=""/>
    <tripinfo id="flow2.15" depart="41.80" departLane="A0A1_0" departPos="4.10" departSpeed="0.00" departDelay="26.80" arrival="106.00" arrivalLane="C3D3_0" arrivalPos="79.20" arrivalSpeed="12.48" duration="64.20" routeLength="540.89" waitingTime="0.00" waitingCount="0" stopTime="0.00" timeLoss="16.97" rerouteNo="0" devices="tripinfo_flow2.15" vType="vtypeauto" speedFactor="0.90" vaporized=""/>
    <tripinfo id="flow2.16" depart="44.60" departLane="A0A1_0" departPos="4.10" departSpeed="0.00" departDelay="28.60" arrival="108.70" arrivalLane="C3D3_0" arrivalPos="79.20" arrivalSpeed="11.82" duration="64.10" routeLength="540.89" waitingTime="0.00" waitingCount="0" stopTime="0.00" timeLoss="14.25" rerouteNo="0" devices="tripinfo_flow2.16" vType="vtypeauto" speedFactor="0.85" vaporized=""/>
    <tripinfo id="flow2.17" depart="47.50" departLane="A0A1_0" departPos="4.10" departSpeed="0.00" departDelay="30.50" arrival="110.20" arrivalLane="C3D3_0" arrivalPos="79.20" arrivalSpeed="15.03" duration="62.70" routeLength="540.89" waitingTime="0.00" waitingCount="0" stopTime="0.00" timeLoss="23.92" rerouteNo="0" devices="tripinfo_flow2.17" vType="vtypeauto" speedFactor="1.10" vaporized=""/>
    <tripinfo id="flow0.6" depart="8.80" departLane="B4B3_0" departPos="4.10" departSpeed="0.00" departDelay="2.80" arrival="110.90" arrivalLane="B3A3_1" arrivalPos="79.20" arrivalSpeed="12.90" duration="102.10" routeLength="570.75" waitingTime="35.50" waitingCount="1" stopTime="0.00" timeLoss="55.99" rerouteNo="0" devices="tripinfo_flow0.6" vType="vtypeauto" speedFactor="0.94" vaporized=""/>
    <tripinfo id="flow0.1" depart="2.80" departLane="B4B3_0" departPos="4.10" departSpeed="0.00" departDelay="1.80" arrival="118.10" arrivalLane="B3A3_1" arrivalPos="79.20" arrivalSpeed="15.03" duration="115.30" routeLength="570.75" waitingTime="46.10" waitingCount="2" stopTime="0.00" timeLoss="75.44" rerouteNo="0" devices="tripinfo_flow0.1" vType="vtypeauto" speedFactor="1.08" vaporized=""/>
    <tripinfo id="flow1.18" depart="49.90" departLane="A3B3_0" departPos="4.10" departSpeed="0.00" departDelay="31.90" arrival="133.70" arrivalLane="D3E3_0" arrivalPos="79.20" arrivalSpeed="13.76" duration="83.80" routeLength="375.10" waitingTime="39.50" waitingCount="3" stopTime="0.00" timeLoss="56.65" rerouteNo="0" devices="tripinfo_flow1.18" vType="vtypeauto" speedFactor="1.00" vaporized=""/>
    <tripinfo id="flow1.19" depart="52.70" departLane="A3B3_0" departPos="4.10" departSpeed="0.00" departDelay="33.70" arrival="133.70" arrivalLane="D3E3_1" arrivalPos="79.20" arrivalSpeed="14.12" duration="81.00" routeLength="375.10" waitingTime="33.50" waitingCount="4" stopTime="0.00" timeLoss="54.53" rerouteNo="0" devices="tripinfo_flow1.19" vType="vtypeauto" speedFactor="1.02" vaporized=""/>
    <tripinfo id="flow1.20" depart="55.50" departLane="A3B3_0" departPos="4.10" departSpeed="0.00" departDelay="35.50" arrival="135.20" arrivalLane="D3E3_0" arrivalPos="79.20" arrivalSpeed="13.92" duration="79.70" routeLength="375.10" waitingTime="26.80" waitingCount="3" stopTime="0.00" timeLoss="53.35" rerouteNo="0" devices="tripinfo_flow1.20" vType="vtypeauto@flow1.20" speedFactor="1.01" vaporized=""/>
    <tripinfo id="flow1.21" depart="58.30" departLane="A3B3_0" departPos="4.10" departSpeed="0.00" departDelay="37.30" arrival="135.40" arrivalLane="D3E3_1" arrivalPos="79.20" arrivalSpeed="12.94" duration="77.10" routeLength="375.10" waitingTime="18.00" waitingCount="1" stopTime="0.00" timeLoss="48.30" rerouteNo="0" devices="tripinfo_flow1.21" vType="vtypeauto" speedFactor="0.94" vaporized=""/>
    <tripinfo id="flow1.22" depart="61.10" departLane="A3B3_0" departPos="4.10" departSpeed="0.00" departDelay="39.10" arrival="136.50" arrivalLane="D3E3_0" arrivalPos="79.20" arrivalSpeed="13.93" duration="75.40" routeLength="375.10" waitingTime="20.70" waitingCount="2" stopTime="0.00" timeLoss="48.09" rerouteNo="0" devices="tripinfo_flow1.22" vType="vtypeauto@flow1.22" speedFactor="1.01" vaporized=""/>
    <tripinfo id="flow1.23" depart="63.90" departLane="A3B3_0" departPos="4.10" departSpeed="0.00" departDelay="40.90" arrival="136.90" arrivalLane="D3E3_1" arrivalPos="79.20" arrivalSpeed="14.21" duration="73.00" routeLength="375.10" waitingTime="13.60" waitingCount="1" stopTime="0.00" timeLoss="46.60" rerouteNo="0" devices="tripinfo_flow1.23" vType="vtypeauto" speedFactor="1.02" vaporized=""/>
    <tripinfo id="flow1.24" depart="66.70" departLane="A3B3_0" departPos="4.10" departSpeed="0.00" departDelay="42.70" arrival="137.70" arrivalLane="D3E3_0" arrivalPos="79.20" arrivalSpeed="13.98" duration="71.00" routeLength="375.10" waitingTime="16.00" waitingCount="2" stopTime="0.00" timeLoss="44.31" rerouteNo="0" devices="tripinfo_flow1.24" vType="vtypeauto@flow1.24" speedFactor="1.01" vaporized=""/>
    <tripinfo id="flow1.25" depart="69.50" departLane="A3B3_0" departPos="4.10" departSpeed="0.00" departDelay="44.50" arrival="138.40" arrivalLane="D3E3_1" arrivalPos="79.20" arrivalSpeed="14.26" duration="68.90" routeLength="375.10" waitingTime="9.20" waitingCount="1" stopTime="0.00" timeLoss="42.73" rerouteNo="0" devices="tripinfo_flow1.25" vType="vtypeauto" speedFactor="1.03" vaporized=""/>
    <tripinfo id="flow1.26" depart="72.30" departLane="A3B3_0" departPos="4.10" departSpeed="0.00" departDelay="46.30" arrival="138.90" arrivalLane="D3E3_0" arrivalPos="79.20" arrivalSpeed="13.88" duration="66.60" routeLength="375.10" waitingTime="11.00" waitingCount="2" stopTime="0.00" timeLoss="40.00" rerouteNo="0" devices="tripinfo_flow1.26" vType="vtypeauto@flow1.26" speedFactor="1.01" vaporized=""/>
    <tripinfo id="flow1.27" depart="75.10" departLane="A3B3_0" departPos="4.10" departSpeed="0.00" departDelay="48.10" arrival="139.90" arrivalLane="D3E3_1" arrivalPos="79.20" arrivalSpeed="14.12" duration="64.80" routeLength="375.10" waitingTime="5.00" waitingCount="1" stopTime="0.00" timeLoss="38.24" rerouteNo="0" devices="tripinfo_flow1.27" vType="vtypeauto" speedFactor="1.02" vaporized=""/>
    <tripinfo id="flow1.28" depart="77.90" departLane="A3B3_0" departPos="4.10" departSpeed="0.00" departDelay="49.90" arrival="140.10" arrivalLane="D3E3_0" arrivalPos="79.20" arrivalSpeed="13.89" duration="62.20" routeLength="375.10" waitingTime="6.30" waitingCount="2" stopTime="0.00" timeLoss="35.33" rerouteNo="0" devices="tripinfo_flow1.28" vType="vtypeauto@flow1.28" speedFactor="1.01" vaporized=""/>
    <tripinfo id="flow1.29" depart="80.70" departLane="A3B3_0" departPos="4.10" departSpeed="0.00" departDelay="51.70" arrival="141.50" arrivalLane="D3E3_1" arrivalPos="79.20" arrivalSpeed="13.94" duration="60.80" routeLength="375.10" waitingTime="0.00" waitingCount="0" stopTime="0.00" timeLoss="33.92" rerouteNo="0" devices="tripinfo_flow1.29" vType="vtypeauto" speedFactor="1.01" vaporized=""/>
    <tripinfo id="flow1.30" depart="83.00" departLane="A3B3_0" departPos="4.10" departSpeed="0.00" departDelay="53.00" arrival="142.00" arrivalLane="D3E3_0" arrivalPos="79.20" arrivalSpeed="12.33" duration="59.00" routeLength="375.10" waitingTime="2.30" waitingCount="1" stopTime="0.00" timeLoss="28.71" rerouteNo="0" devices="tripinfo_flow1.30" vType="vtypeauto" speedFactor="0.89" vaporized=""/>
    <tripinfo id="flow1.31" depart="85.80" departLane="A3B3_0" departPos="4.10" departSpeed="0.00" departDelay="54.80" arrival="142.90" arrivalLane="D3E3_1" arrivalPos="79.20" arrivalSpeed="15.09" duration="57.10" routeLength="375.10" waitingTime="0.00" waitingCount="0" stopTime="0.00" timeLoss="32.33" rerouteNo="0" devices="tripinfo_flow1.31" vType="vtypeauto" speedFactor="1.09" vaporized=""/>
    <tripinfo id="flow1.32" depart="87.30" departLane="A3B3_0" departPos="4.10" departSpeed="0.00" departDelay="55.30" arrival="143.60" arrivalLane="D3E3_0" arrivalPos="79.20" arrivalSpeed="12.54" duration="56.30" routeLength="375.10" waitingTime="0.60" waitingCount="1" stopTime="0.00" timeLoss="26.51" rerouteNo="0" devices="tripinfo_flow1.32" vType="vtypeauto" speedFactor="0.91" vaporized=""/>
    <tripinfo id="flow1.33" depart="90.10" departLane="A3B3_0" departPos="4.10" departSpeed="0.00" departDelay="57.10" arrival="144.40" arrivalLane="D3E3_1" arrivalPos="79.20" arrivalSpeed="14.69" duration="54.30" routeLength="375.10" waitingTime="0.00" waitingCount="0" stopTime="0.00" timeLoss="28.91" rerouteNo="0" devices="tripinfo_flow1.33" vType="vtypeauto" speedFactor="1.06" vaporized=""/>
    <tripinfo id="flow1.34" depart="90.90" departLane="A3B3_0" departPos="4.10" departSpeed="0.00" departDelay="56.90" arrival="145.20" arrivalLane="D3E3_0" arrivalPos="79.20" arrivalSpeed="13.12" duration="54.30" routeLength="375.10" waitingTime="0.00" waitingCount="0" stopTime="0.00" timeLoss="25.91" rerouteNo="0" devices="tripinfo_flow1.34" vType="vtypeauto" speedFactor="0.95" vaporized=""/>
    <tripinfo id="flow1.35" depart="93.80" departLane="A3B3_0" departPos="4.10" departSpeed="0.00" departDelay="58.80" arrival="146.00" arrivalLane="D3E3_1" arrivalPos="79.20" arrivalSpeed="14.07" duration="52.20" routeLength="375.10" waitingTime="0.00" waitingCount="0" stopTime="0.00" timeLoss="25.54" rerouteNo="0" devices="tripinfo_flow1.35" vType="vtypeauto" speedFactor="1.01" vaporized=""/>
    <tripinfo id="flow1.36" depart="94.40" departLane="A3B3_0" departPos="4.10" departSpeed="0.00" departDelay="58.40" arrival="146.80" arrivalLane="D3E3_0" arrivalPos="79.20" arrivalSpeed="13.33" duration="52.40" routeLength="375.10" waitingTime="0.00" waitingCount="0" stopTime="0.00" timeLoss="24.18" rerouteNo="0" devices="tripinfo_flow1.36" vType="vtypeauto" speedFactor="0.96" vaporized=""/>
    <tripinfo id="flow1.37" depart="101.10" departLane="A3B3_0" departPos="4.10" departSpeed="0.00" departDelay="64.10" arrival="147.50" arrivalLane="D3E3_1" arrivalPos="79.20" arrivalSpeed="15.23" duration="46.40" routeLength="375.10" waitingTime="0.00" waitingCount="0" stopTime="0.00" timeLoss="21.75" rerouteNo="0" devices="tripinfo_flow1.37" vType="vtypeauto" speedFactor="1.10" vaporized=""/>
    <tripinfo id="flow1.38" depart="102.00" departLane="A3B3_0" departPos="4.10" departSpeed="0.00" departDelay="64.00" arrival="148.40" arrivalLane="D3E3_0" arrivalPos="79.20" arrivalSpeed="12.72" duration="46.40" routeLength="375.10" waitingTime="0.00" waitingCount="0" stopTime="0.00" timeLoss="17.09" rerouteNo="0" devices="tripinfo_flow1.38" vType="vtypeauto" speedFactor="0.92" vaporized=""/>
    <tripinfo id="flow1.39" depart="104.70" departLane="A3B3_0" departPos="4.10" departSpeed="0.00" departDelay="65.70" arrival="149.20" arrivalLane="D3E3_1" arrivalPos="79.20" arrivalSpeed="13.66" duration="44.50" routeLength="375.10" waitingTime="0.00" waitingCount="0" stopTime="0.00" timeLoss="17.18" rerouteNo="0" devices="tripinfo_flow1.39" vType="vtypeauto" speedFactor="0.99" vaporized=""/>
    <tripinfo id="flow1.40" depart="107.50" departLane="A3B3_0" departPos="4.10" departSpeed="0.00" departDelay="67.50" arrival="149.90" arrivalLane="D3E3_0" arrivalPos="79.20" arrivalSpeed="15.20" duration="42.40" routeLength="375.10" waitingTime="0.00" waitingCount="0" stopTime="0.00" timeLoss="17.87" rerouteNo="0" devices="tripinfo_flow1.40" vType="vtypeauto" speedFactor="1.10" vaporized=""/>
    <tripinfo id="flow1.43" depart="115.80" departLane="A3B3_0" departPos="4.10" departSpeed="0.00" departDelay="72.80" arrival="150.70" arrivalLane="D3E3_1" arrivalPos="79.20" arrivalSpeed="14.21" duration="34.90" routeLength="375.10" waitingTime="0.00" waitingCount="0" stopTime="0.00" timeLoss="8.68" rerouteNo="0" devices="tripinfo_flow1.43" vType="vtypeauto" speedFactor="1.03" vaporized=""/>
    <tripinfo id="flow1.41" depart="110.30" departLane="A3B3_0" departPos="4.10" departSpeed="0.00" departDelay="69.30" arrival="151.30" arrivalLane="D3E3_0" arrivalPos="79.20" arrivalSpeed="14.62" duration="41.00" routeLength="375.10" waitingTime="0.00" waitingCount="0" stopTime="0.00" timeLoss="15.54" rerouteNo="0" devices="tripinfo_flow1.41" vType="vtypeauto" speedFactor="1.06" vaporized=""/>
    <tripinfo id="flow1.44" depart="118.60" departLane="A3B3_0" departPos="4.10" departSpeed="0.00" departDelay="74.60" arrival="152.20" arrivalLane="D3E3_1" arrivalPos="79.20" arrivalSpeed="14.35" duration="33.60" routeLength="375.10" waitingTime="0.00" waitingCount="0" stopTime="0.00" timeLoss="7.54" rerouteNo="0" devices="tripinfo_flow1.44" vType="vtypeauto" speedFactor="1.04" vaporized=""/>
    <tripinfo id="flow1.42" depart="113.00" departLane="A3B3_0" departPos="4.10" departSpeed="0.00" departDelay="71.00" arrival="154.00" arrivalLane="D3E3_0" arrivalPos="79.20" arrivalSpeed="11.37" duration="41.00" routeLength="375.10" waitingTime="0.00" waitingCount="0" stopTime="0.00" timeLoss="8.07" rerouteNo="0" devices="tripinfo_flow1.42" vType="vtypeauto" speedFactor="0.82" vaporized=""/>
    <tripinfo id="flow1.45" depart="121.30" departLane="A3B3_0" departPos="4.10" departSpeed="0.00" departDelay="76.30" arrival="155.50" arrivalLane="D3E3_0" arrivalPos="79.20" arrivalSpeed="14.18" duration="34.20" routeLength="375.10" waitingTime="0.00" waitingCount="0" stopTime="0.00" timeLoss="10.03" rerouteNo="0" devices="tripinfo_flow1.45" vType="vtypeauto" speedFactor="1.12" vaporized=""/>
    <tripinfo id="flow1.46" depart="124.10" departLane="A3B3_0" departPos="4.10" departSpeed="0.00" departDelay="78.10" arrival="157.00" arrivalLane="D3E3_0" arrivalPos="79.20" arrivalSpeed="13.22" duration="32.90" routeLength="375.10" waitingTime="0.00" waitingCount="0" stopTime="0.00" timeLoss="4.57" rerouteNo="0" devices="tripinfo_flow1.46" vType="vtypeauto" speedFactor="0.95" vaporized=""/>
    <tripinfo id="flow1.47" depart="126.90" departLane="A3B3_0" departPos="4.10" departSpeed="0.00" departDelay="79.90" arrival="159.10" arrivalLane="D3E3_0" arrivalPos="79.20" arrivalSpeed="12.96" duration="32.20" routeLength="375.10" waitingTime="0.00" waitingCount="0" stopTime="0.00" timeLoss="3.33" rerouteNo="0" devices="tripinfo_flow1.47" vType="vtypeauto" speedFactor="0.94" vaporized=""/>
    <tripinfo id="flow1.48" depart="129.70" departLane="A3B3_0" departPos="4.10" departSpeed="0.00" departDelay="81.70" arrival="160.60" arrivalLane="D3E3_0" arrivalPos="79.20" arrivalSpeed="15.82" duration="30.90" routeLength="375.10" waitingTime="0.00" waitingCount="0" stopTime="0.00" timeLoss="7.17" rerouteNo="0" devices="tripinfo_flow1.48" vType="vtypeauto" speedFactor="1.14" vaporized=""/>
    <tripinfo id="flow2.18" depart="50.20" departLane="A0A1_0" departPos="4.10" departSpeed="0.00" departDelay="32.20" arrival="160.80" arrivalLane="C3D3_0" arrivalPos="79.20" arrivalSpeed="12.44" duration="110.60" routeLength="540.89" waitingTime="46.40" waitingCount="2" stopTime="0.00" timeLoss="63.22" rerouteNo="0" devices="tripinfo_flow2.18" vType="vtypeauto" speedFactor="0.90" vaporized=""/>
    <tripinfo id="flow2.19" depart="53.00" departLane="A0A1_0" departPos="4.10" departSpeed="0.00" departDelay="34.00" arrival="161.90" arrivalLane="C3D3_0" arrivalPos="79.20" arrivalSpeed="12.75" duration="108.90" routeLength="540.89" waitingTime="35.40" waitingCount="2" stopTime="0.00" timeLoss="65.99" rerouteNo="0" devices="tripinfo_flow2.19" vType="vtypeauto@flow2.19" speedFactor="1.01" vaporized=""/>