<?xml version="1.0" encoding="UTF-8"?>

<!-- generated on 2024-10-30 19:13:02 by Eclipse SUMO sumo Version 1.20.0
<configuration xmlns:xsi="http://www.w3.org/2001/XMLSchema-instance" xsi:noNamespaceSchemaLocation="http://sumo.dlr.de/xsd/sumoConfiguration.xsd">

    <input>
        <net-file value="./sim_cfg_grid_2_lanes/grid.net.xml"/>
        <route-files value="./sim_cfg_grid_2_lanes/10x0.5.rou.xml"/>
    </input>

    <output>
        <tripinfo-output value="./sim_cfg_grid_2_lanes/tripinfo_0.571.xml"/>
    </output>

    <time>
        <begin value="0"/>
        <end value="500"/>
        <step-length value="0.1"/>
    </time>

    <traci_server>
        <remote-port value="50104"/>
    </traci_server>

    <gui_only>
        <gui-settings-file value="./sim_cfg_grid_2_lanes/gui_settings.xml"/>
    </gui_only>

</configuration>
-->

<tripinfos xmlns:xsi="http://www.w3.org/2001/XMLSchema-instance" xsi:noNamespaceSchemaLocation="http://sumo.dlr.de/xsd/tripinfo_file.xsd">
    <tripinfo id="flow9.1" depart="2.80" departLane="A2B2_0" departPos="4.10" departSpeed="0.00" departDelay="0.80" arrival="41.50" arrivalLane="D2E2_1" arrivalPos="79.20" arrivalSpeed="3.97" duration="38.70" routeLength="375.10" waitingTime="3.90" waitingCount="1" stopTime="0.00" timeLoss="15.37" rerouteNo="0" devices="tripinfo_flow9.1" vType="vtypeauto" speedFactor="1.16" vaporized=""/>
    <tripinfo id="flow9.0" depart="0.00" departLane="A2B2_0" departPos="4.10" departSpeed="0.00" departDelay="0.00" arrival="43.80" arrivalLane="D2E2_0" arrivalPos="79.20" arrivalSpeed="11.82" duration="43.80" routeLength="375.10" waitingTime="5.50" waitingCount="1" stopTime="0.00" timeLoss="12.22" rerouteNo="0" devices="tripinfo_flow9.0" vType="vtypeauto" speedFactor="0.86" vaporized=""/>
    <tripinfo id="flow9.2" depart="5.60" departLane="A2B2_0" departPos="4.10" departSpeed="0.00" departDelay="1.60" arrival="45.30" arrivalLane="D2E2_0" arrivalPos="79.20" arrivalSpeed="12.91" duration="39.70" routeLength="375.10" waitingTime="0.00" waitingCount="0" stopTime="0.00" timeLoss="10.71" rerouteNo="0" devices="tripinfo_flow9.2" vType="vtypeauto" speedFactor="0.93" vaporized=""/>
    <tripinfo id="flow9.3" depart="8.40" departLane="A2B2_0" departPos="4.10" departSpeed="0.00" departDelay="2.40" arrival="45.90" arrivalLane="D2E2_1" arrivalPos="79.20" arrivalSpeed="2.36" duration="37.50" routeLength="375.10" waitingTime="0.00" waitingCount="0" stopTime="0.00" timeLoss="7.52" rerouteNo="0" devices="tripinfo_flow9.3" vType="vtypeauto" speedFactor="0.90" vaporized=""/>
    <tripinfo id="flow9.4" depart="11.20" departLane="A2B2_0" departPos="4.10" departSpeed="0.00" departDelay="3.20" arrival="47.20" arrivalLane="D2E2_0" arrivalPos="79.20" arrivalSpeed="11.77" duration="36.00" routeLength="375.10" waitingTime="0.00" waitingCount="0" stopTime="0.00" timeLoss="4.20" rerouteNo="0" devices="tripinfo_flow9.4" vType="vtypeauto" speedFactor="0.85" vaporized=""/>
    <tripinfo id="flow9.6" depart="16.80" departLane="A2B2_0" departPos="4.10" departSpeed="0.00" departDelay="4.80" arrival="48.70" arrivalLane="D2E2_0" arrivalPos="79.20" arrivalSpeed="14.08" duration="31.90" routeLength="375.10" waitingTime="0.00" waitingCount="0" stopTime="0.00" timeLoss="5.44" rerouteNo="0" devices="tripinfo_flow9.6" vType="vtypeauto" speedFactor="1.02" vaporized=""/>
    <tripinfo id="flow9.5" depart="14.00" departLane="A2B2_0" departPos="4.10" departSpeed="0.00" departDelay="4.00" arrival="49.60" arrivalLane="D2E2_1" arrivalPos="79.20" arrivalSpeed="0.92" duration="35.60" routeLength="375.10" waitingTime="0.00" waitingCount="0" stopTime="0.00" timeLoss="7.75" rerouteNo="0" devices="tripinfo_flow9.5" vType="vtypeauto" speedFactor="0.97" vaporized=""/>
    <tripinfo id="flow9.7" depart="19.60" departLane="A2B2_0" departPos="4.10" departSpeed="0.00" departDelay="5.60" arrival="50.10" arrivalLane="D2E2_0" arrivalPos="79.20" arrivalSpeed="15.09" duration="30.50" routeLength="375.10" waitingTime="0.00" waitingCount="0" stopTime="0.00" timeLoss="5.64" rerouteNo="0" devices="tripinfo_flow9.7" vType="vtypeauto" speedFactor="1.09" vaporized=""/>
    <tripinfo id="flow9.8" depart="22.30" departLane="A2B2_0" departPos="4.10" departSpeed="0.00" departDelay="6.30" arrival="52.60" arrivalLane="D2E2_0" arrivalPos="79.20" arrivalSpeed="14.12" duration="30.30" routeLength="375.10" waitingTime="0.00" waitingCount="0" stopTime="0.00" timeLoss="3.80" rerouteNo="0" devices="tripinfo_flow9.8" vType="vtypeauto" speedFactor="1.02" vaporized=""/>
    <tripinfo id="flow9.9" depart="25.10" departLane="A2B2_0" departPos="4.10" departSpeed="0.00" departDelay="7.10" arrival="54.10" arrivalLane="D2E2_0" arrivalPos="79.20" arrivalSpeed="15.13" duration="29.00" routeLength="375.10" waitingTime="0.00" waitingCount="0" stopTime="0.00" timeLoss="4.31" rerouteNo="0" devices="tripinfo_flow9.9" vType="vtypeauto" speedFactor="1.10" vaporized=""/>
    <tripinfo id="flow1.1" depart="2.70" departLane="A3B3_0" departPos="4.10" departSpeed="0.00" departDelay="0.70" arrival="79.50" arrivalLane="D3E3_1" arrivalPos="79.20" arrivalSpeed="14.20" duration="76.80" routeLength="375.10" waitingTime="37.40" waitingCount="2" stopTime="0.00" timeLoss="50.49" rerouteNo="0" devices="tripinfo_flow1.1" vType="vtypeauto" speedFactor="1.03" vaporized=""/>
    <tripinfo id="flow1.0" depart="0.00" departLane="A3B3_0" departPos="4.10" departSpeed="0.00" departDelay="0.00" arrival="80.10" arrivalLane="D3E3_0" arrivalPos="79.20" arrivalSpeed="12.96" duration="80.10" routeLength="375.10" waitingTime="39.70" waitingCount="2" stopTime="0.00" timeLoss="51.31" rerouteNo="0" devices="tripinfo_flow1.0" vType="vtypeauto" speedFactor="0.94" vaporized=""/>
    <tripinfo id="flow1.3" depart="8.20" departLane="A3B3_0" departPos="4.10" departSpeed="0.00" departDelay="2.20" arrival="81.00" arrivalLane="D3E3_1" arrivalPos="79.20" arrivalSpeed="15.92" duration="72.80" routeLength="375.10" waitingTime="29.10" waitingCount="1" stopTime="0.00" timeLoss="49.32" rerouteNo="0" devices="tripinfo_flow1.3" vType="vtypeauto" speedFactor="1.15" vaporized=""/>
    <tripinfo id="flow1.2" depart="5.40" departLane="A3B3_0" departPos="4.10" departSpeed="0.00" departDelay="1.40" arrival="81.60" arrivalLane="D3E3_0" arrivalPos="79.20" arrivalSpeed="13.98" duration="76.20" routeLength="375.10" waitingTime="29.00" waitingCount="1" stopTime="0.00" timeLoss="49.45" rerouteNo="0" devices="tripinfo_flow1.2" vType="vtypeauto" speedFactor="1.01" vaporized=""/>
    <tripinfo id="flow6.1" depart="5.60" departLane="D4D3_0" departPos="4.10" departSpeed="0.00" departDelay="3.60" arrival="82.30" arrivalLane="D1D0_0" arrivalPos="79.20" arrivalSpeed="12.20" duration="76.70" routeLength="375.10" waitingTime="31.30" waitingCount="2" stopTime="0.00" timeLoss="45.96" rerouteNo="0" devices="tripinfo_flow6.1" vType="vtypeauto" speedFactor="0.88" vaporized=""/>
    <tripinfo id="flow1.5" depart="13.80" departLane="A3B3_0" departPos="4.10" departSpeed="0.00" departDelay="3.80" arrival="82.30" arrivalLane="D3E3_1" arrivalPos="79.20" arrivalSpeed="16.16" duration="68.50" routeLength="375.10" waitingTime="27.30" waitingCount="1" stopTime="0.00" timeLoss="45.38" rerouteNo="0" devices="tripinfo_flow1.5" vType="vtypeauto" speedFactor="1.17" vaporized=""/>
    <tripinfo id="flow1.4" depart="11.00" departLane="A3B3_0" departPos="4.10" departSpeed="0.00" departDelay="3.00" arrival="83.20" arrivalLane="D3E3_0" arrivalPos="79.20" arrivalSpeed="13.19" duration="72.20" routeLength="375.10" waitingTime="27.20" waitingCount="1" stopTime="0.00" timeLoss="43.96" rerouteNo="0" devices="tripinfo_flow1.4" vType="vtypeauto" speedFactor="0.96" vaporized=""/>
    <tripinfo id="flow6.2" depart="11.20" departLane="D4D3_0" departPos="4.10" departSpeed="0.00" departDelay="7.20" arrival="83.60" arrivalLane="D1D0_1" arrivalPos="79.20" arrivalSpeed="12.73" duration="72.40" routeLength="375.10" waitingTime="22.70" waitingCount="2" stopTime="0.00" timeLoss="42.93" rerouteNo="0" devices="tripinfo_flow6.2" vType="vtypeauto" speedFactor="0.92" vaporized=""/>
    <tripinfo id="flow6.0" depart="0.00" departLane="D4D3_0" departPos="4.10" departSpeed="0.00" departDelay="0.00" arrival="83.80" arrivalLane="D1D0_0" arrivalPos="79.20" arrivalSpeed="14.52" duration="83.80" routeLength="375.10" waitingTime="35.50" waitingCount="3" stopTime="0.00" timeLoss="57.96" rerouteNo="0" devices="tripinfo_flow6.0" vType="vtypeauto" speedFactor="1.05" vaporized=""/>
    <tripinfo id="flow1.6" depart="16.60" departLane="A3B3_0" departPos="4.10" departSpeed="0.00" departDelay="4.60" arrival="83.80" arrivalLane="D3E3_1" arrivalPos="79.20" arrivalSpeed="15.53" duration="67.20" routeLength="375.10" waitingTime="25.90" waitingCount="1" stopTime="0.00" timeLoss="43.01" rerouteNo="0" devices="tripinfo_flow1.6" vType="vtypeauto" speedFactor="1.12" vaporized=""/>
    <tripinfo id="flow1.7" depart="19.40" departLane="A3B3_0" departPos="4.10" departSpeed="0.00" departDelay="5.40" arrival="84.80" arrivalLane="D3E3_0" arrivalPos="79.20" arrivalSpeed="13.41" duration="65.40" routeLength="375.10" waitingTime="20.20" waitingCount="2" stopTime="0.00" timeLoss="37.57" rerouteNo="0" devices="tripinfo_flow1.7" vType="vtypeauto" speedFactor="0.97" vaporized=""/>
    <tripinfo id="flow6.3" depart="16.80" departLane="D4D3_0" departPos="4.10" departSpeed="0.00" departDelay="10.80" arrival="85.20" arrivalLane="D1D0_1" arrivalPos="79.20" arrivalSpeed="13.40" duration="68.40" routeLength="375.10" waitingTime="16.70" waitingCount="2" stopTime="0.00" timeLoss="40.56" rerouteNo="0" devices="tripinfo_flow6.3" vType="vtypeauto" speedFactor="0.97" vaporized=""/>
    <tripinfo id="flow1.8" depart="22.20" departLane="A3B3_0" departPos="4.10" departSpeed="0.00" departDelay="6.20" arrival="85.50" arrivalLane="D3E3_1" arrivalPos="79.20" arrivalSpeed="13.79" duration="63.30" routeLength="375.10" waitingTime="18.20" waitingCount="2" stopTime="0.00" timeLoss="36.25" rerouteNo="0" devices="tripinfo_flow1.8" vType="vtypeauto" speedFactor="1.00" vaporized=""/>
    <tripinfo id="flow1.9" depart="25.00" departLane="A3B3_0" departPos="4.10" departSpeed="0.00" departDelay="7.00" arrival="86.60" arrivalLane="D3E3_0" arrivalPos="79.20" arrivalSpeed="12.31" duration="61.60" routeLength="375.10" waitingTime="10.20" waitingCount="1" stopTime="0.00" timeLoss="31.24" rerouteNo="0" devices="tripinfo_flow1.9" vType="vtypeauto" speedFactor="0.89" vaporized=""/>
    <tripinfo id="flow6.4" depart="22.40" departLane="D4D3_0" departPos="4.10" departSpeed="0.00" departDelay="14.40" arrival="86.70" arrivalLane="D1D0_1" arrivalPos="79.20" arrivalSpeed="13.84" duration="64.30" routeLength="375.10" waitingTime="11.40" waitingCount="1" stopTime="0.00" timeLoss="37.15" rerouteNo="0" devices="tripinfo_flow6.4" vType="vtypeauto" speedFactor="1.00" vaporized=""/>
    <tripinfo id="flow1.10" depart="27.80" departLane="A3B3_0" departPos="4.10" departSpeed="0.00" departDelay="7.80" arrival="87.20" arrivalLane="D3E3_1" arrivalPos="79.20" arrivalSpeed="13.20" duration="59.40" routeLength="375.10" waitingTime="11.40" waitingCount="1" stopTime="0.00" timeLoss="31.16" rerouteNo="0" devices="tripinfo_flow1.10" vType="vtypeauto" speedFactor="0.96" vaporized=""/>
    <tripinfo id="flow9.11" depart="30.60" departLane="A2B2_0" departPos="4.10" departSpeed="0.00" departDelay="8.60" arrival="87.40" arrivalLane="D2E2_0" arrivalPos="79.20" arrivalSpeed="14.77" duration="56.80" routeLength="375.10" waitingTime="22.30" waitingCount="1" stopTime="0.00" timeLoss="31.52" rerouteNo="0" devices="tripinfo_flow9.11" vType="vtypeauto" speedFactor="1.07" vaporized=""/>
    <tripinfo id="flow1.11" depart="30.60" departLane="A3B3_0" departPos="4.10" departSpeed="0.00" departDelay="8.60" arrival="88.30" arrivalLane="D3E3_0" arrivalPos="79.20" arrivalSpeed="11.99" duration="57.70" routeLength="375.10" waitingTime="9.00" waitingCount="1" stopTime="0.00" timeLoss="26.47" rerouteNo="0" devices="tripinfo_flow1.11" vType="vtypeauto" speedFactor="0.87" vaporized=""/>
    <tripinfo id="flow6.5" depart="28.00" departLane="D4D3_0" departPos="4.10" departSpeed="0.00" departDelay="18.00" arrival="88.50" arrivalLane="D1D0_1" arrivalPos="79.20" arrivalSpeed="12.41" duration="60.50" routeLength="375.10" waitingTime="6.40" waitingCount="1" stopTime="0.00" timeLoss="30.37" rerouteNo="0" devices="tripinfo_flow6.5" vType="vtypeauto" speedFactor="0.90" vaporized=""/>
    <tripinfo id="flow1.12" depart="33.40" departLane="A3B3_0" departPos="4.10" departSpeed="0.00" departDelay="9.40" arrival="88.70" arrivalLane="D3E3_1" arrivalPos="79.20" arrivalSpeed="15.28" duration="55.30" routeLength="375.10" waitingTime="10.20" waitingCount="1" stopTime="0.00" timeLoss="30.77" rerouteNo="0" devices="tripinfo_flow1.12" vType="vtypeauto" speedFactor="1.10" vaporized=""/>
    <tripinfo id="flow9.12" depart="33.30" departLane="A2B2_0" departPos="4.10" departSpeed="0.00" departDelay="9.30" arrival="89.10" arrivalLane="D2E2_0" arrivalPos="79.20" arrivalSpeed="13.97" duration="55.80" routeLength="375.10" waitingTime="17.00" waitingCount="1" stopTime="0.00" timeLoss="28.99" rerouteNo="0" devices="tripinfo_flow9.12" vType="vtypeauto" speedFactor="1.01" vaporized=""/>
    <tripinfo id="flow1.13" depart="36.20" departLane="A3B3_0" departPos="4.10" departSpeed="0.00" departDelay="10.20" arrival="89.80" arrivalLane="D3E3_0" arrivalPos="79.20" arrivalSpeed="14.59" duration="53.60" routeLength="375.10" waitingTime="7.90" waitingCount="1" stopTime="0.00" timeLoss="28.29" rerouteNo="0" devices="tripinfo_flow1.13" vType="vtypeauto" speedFactor="1.07" vaporized=""/>
    <tripinfo id="flow9.10" depart="27.90" departLane="A2B2_0" departPos="4.10" departSpeed="0.00" departDelay="7.90" arrival="89.90" arrivalLane="D2E2_1" arrivalPos="79.20" arrivalSpeed="0.85" duration="62.00" routeLength="375.10" waitingTime="24.20" waitingCount="1" stopTime="0.00" timeLoss="33.86" rerouteNo="0" devices="tripinfo_flow9.10" vType="vtypeauto" speedFactor="0.96" vaporized=""/>
    <tripinfo id="flow6.6" depart="33.50" departLane="D4D3_0" departPos="4.10" departSpeed="0.00" departDelay="21.50" arrival="90.10" arrivalLane="D1D0_1" arrivalPos="79.20" arrivalSpeed="12.55" duration="56.60" routeLength="375.10" waitingTime="2.10" waitingCount="1" stopTime="0.00" timeLoss="26.75" rerouteNo="0" devices="tripinfo_flow6.6" vType="vtypeauto" speedFactor="0.91" vaporized=""/>
    <tripinfo id="flow1.14" depart="38.90" departLane="A3B3_0" departPos="4.10" departSpeed="0.00" departDelay="10.90" arrival="90.10" arrivalLane="D3E3_1" arrivalPos="79.20" arrivalSpeed="16.15" duration="51.20" routeLength="375.10" waitingTime="8.90" waitingCount="1" stopTime="0.00" timeLoss="27.94" rerouteNo="0" devices="tripinfo_flow1.14" vType="vtypeauto" speedFactor="1.16" vaporized=""/>
    <tripinfo id="flow9.14" depart="38.80" departLane="A2B2_0" departPos="4.10" departSpeed="0.00" departDelay="10.80" arrival="90.60" arrivalLane="D2E2_0" arrivalPos="79.20" arrivalSpeed="14.39" duration="51.80" routeLength="375.10" waitingTime="12.20" waitingCount="1" stopTime="0.00" timeLoss="25.81" rerouteNo="0" devices="tripinfo_flow9.14" vType="vtypeauto" speedFactor="1.04" vaporized=""/>
    <tripinfo id="flow1.15" depart="41.70" departLane="A3B3_0" departPos="4.10" departSpeed="0.00" departDelay="11.70" arrival="91.30" arrivalLane="D3E3_0" arrivalPos="79.20" arrivalSpeed="13.94" duration="49.60" routeLength="375.10" waitingTime="6.20" waitingCount="1" stopTime="0.00" timeLoss="22.68" rerouteNo="0" devices="tripinfo_flow1.15" vType="vtypeauto" speedFactor="1.00" vaporized=""/>
    <tripinfo id="flow6.7" depart="39.10" departLane="D4D3_0" departPos="4.10" departSpeed="0.00" departDelay="25.10" arrival="91.60" arrivalLane="D1D0_1" arrivalPos="79.20" arrivalSpeed="14.22" duration="52.50" routeLength="375.10" waitingTime="0.00" waitingCount="0" stopTime="0.00" timeLoss="26.28" rerouteNo="0" devices="tripinfo_flow6.7" vType="vtypeauto" speedFactor="1.03" vaporized=""/>
    <tripinfo id="flow1.16" depart="44.50" departLane="A3B3_0" departPos="4.10" departSpeed="0.00" departDelay="12.50" arrival="91.60" arrivalLane="D3E3_1" arrivalPos="79.20" arrivalSpeed="14.95" duration="47.10" routeLength="375.10" waitingTime="5.50" waitingCount="1" stopTime="0.00" timeLoss="21.99" rerouteNo="0" devices="tripinfo_flow1.16" vType="vtypeauto" speedFactor="1.08" vaporized=""/>
    <tripinfo id="flow4.0" depart="1.30" departLane="C0C1_0" departPos="4.10" departSpeed="0.00" departDelay="1.30" arrival="91.70" arrivalLane="C3C4_0" arrivalPos="79.20" arrivalSpeed="14.23" duration="90.40" routeLength="375.10" waitingTime="46.70" waitingCount="3" stopTime="0.00" timeLoss="64.12" rerouteNo="0" devices="tripinfo_flow4.0" vType="vtypeauto" speedFactor="1.03" vaporized=""/>
    <tripinfo id="flow4.1" depart="4.20" departLane="C0C1_0" departPos="4.10" departSpeed="0.00" departDelay="2.20" arrival="91.80" arrivalLane="C3C4_0" arrivalPos="79.20" arrivalSpeed="13.68" duration="87.60" routeLength="375.10" waitingTime="40.30" waitingCount="2" stopTime="0.00" timeLoss="60.27" rerouteNo="0" devices="tripinfo_flow4.1" vType="vtypeauto" speedFactor="0.99" vaporized=""/>
    <tripinfo id="flow9.16" depart="44.40" departLane="A2B2_0" departPos="4.10" departSpeed="0.00" departDelay="12.40" arrival="92.40" arrivalLane="D2E2_0" arrivalPos="79.20" arrivalSpeed="12.98" duration="48.00" routeLength="375.10" waitingTime="8.00" waitingCount="1" stopTime="0.00" timeLoss="19.21" rerouteNo="0" devices="tripinfo_flow9.16" vType="vtypeauto" speedFactor="0.94" vaporized=""/>
    <tripinfo id="flow6.8" depart="44.60" departLane="D4D3_0" departPos="4.10" departSpeed="0.00" departDelay="28.60" arrival="93.10" arrivalLane="D1D0_1" arrivalPos="79.20" arrivalSpeed="13.88" duration="48.50" routeLength="375.10" waitingTime="0.00" waitingCount="0" stopTime="0.00" timeLoss="21.48" rerouteNo="0" devices="tripinfo_flow6.8" vType="vtypeauto" speedFactor="1.00" vaporized=""/>
    <tripinfo id="flow1.17" depart="47.30" departLane="A3B3_0" departPos="4.10" departSpeed="0.00" departDelay="13.30" arrival="93.10" arrivalLane="D3E3_0" arrivalPos="79.20" arrivalSpeed="12.33" duration="45.80" routeLength="375.10" waitingTime="7.80" waitingCount="1" stopTime="0.00" timeLoss="15.66" rerouteNo="0" devices="tripinfo_flow1.17" vType="vtypeauto" speedFactor="0.90" vaporized=""/>
    <tripinfo id="flow4.3" depart="10.00" departLane="C0C1_0" departPos="4.10" departSpeed="0.00" departDelay="4.00" arrival="93.30" arrivalLane="C3C4_1" arrivalPos="79.20" arrivalSpeed="13.71" duration="83.30" routeLength="375.10" waitingTime="30.30" waitingCount="2" stopTime="0.00" timeLoss="56.11" rerouteNo="0" devices="tripinfo_flow4.3" vType="vtypeauto" speedFactor="0.99" vaporized=""/>
    <tripinfo id="flow9.13" depart="36.00" departLane="A2B2_0" departPos="4.10" departSpeed="0.00" departDelay="10.00" arrival="93.40" arrivalLane="D2E2_1" arrivalPos="79.20" arrivalSpeed="0.91" duration="57.40" routeLength="375.10" waitingTime="12.80" waitingCount="1" stopTime="0.00" timeLoss="29.09" rerouteNo="0" devices="tripinfo_flow9.13" vType="vtypeauto" speedFactor="0.95" vaporized=""/>
    <tripinfo id="flow4.2" depart="7.10" departLane="C0C1_0" departPos="4.10" departSpeed="0.00" departDelay="3.10" arrival="94.20" arrivalLane="C3C4_0" arrivalPos="79.20" arrivalSpeed="11.39" duration="87.10" routeLength="375.10" waitingTime="30.80" waitingCount="2" stopTime="0.00" timeLoss="54.38" rerouteNo="0" devices="tripinfo_flow4.2" vType="vtypeauto" speedFactor="0.83" vaporized=""/>
    <tripinfo id="flow6.9" depart="50.20" departLane="D4D3_0" departPos="4.10" departSpeed="0.00" departDelay="32.20" arrival="94.60" arrivalLane="D1D0_1" arrivalPos="79.20" arrivalSpeed="13.98" duration="44.40" routeLength="375.10" waitingTime="0.00" waitingCount="0" stopTime="0.00" timeLoss="17.62" rerouteNo="0" devices="tripinfo_flow6.9" vType="vtypeauto" speedFactor="1.01" vaporized=""/>
    <tripinfo id="flow2.0" depart="0.00" departLane="A0A1_0" departPos="4.10" departSpeed="0.00" departDelay="0.00" arrival="94.80" arrivalLane="C3D3_0" arrivalPos="79.20" arrivalSpeed="13.98" duration="94.80" routeLength="540.89" waitingTime="31.50" waitingCount="2" stopTime="0.00" timeLoss="52.70" rerouteNo="0" devices="tripinfo_flow2.0" vType="vtypeauto" speedFactor="1.01" vaporized=""/>
    <tripinfo id="flow6.10" depart="55.80" departLane="D4D3_0" departPos="4.10" departSpeed="0.00" departDelay="35.80" arrival="96.10" arrivalLane="D1D0_1" arrivalPos="79.20" arrivalSpeed="14.05" duration="40.30" routeLength="375.10" waitingTime="0.00" waitingCount="0" stopTime="0.00" timeLoss="13.66" rerouteNo="0" devices="tripinfo_flow6.10" vType="vtypeauto" speedFactor="1.01" vaporized=""/>
    <tripinfo id="flow2.1" depart="2.80" departLane="A0A1_0" departPos="4.10" departSpeed="0.00" departDelay="0.80" arrival="96.70" arrivalLane="C3D3_0" arrivalPos="79.20" arrivalSpeed="14.42" duration="93.90" routeLength="540.89" waitingTime="20.20" waitingCount="1" stopTime="0.00" timeLoss="53.21" rerouteNo="0" devices="tripinfo_flow2.1" vType="vtypeauto" speedFactor="1.05" vaporized=""/>
    <tripinfo id="flow9.15" depart="41.60" departLane="A2B2_0" departPos="4.10" departSpeed="0.00" departDelay="11.60" arrival="96.90" arrivalLane="D2E2_1" arrivalPos="79.20" arrivalSpeed="0.90" duration="55.30" routeLength="375.10" waitingTime="9.70" waitingCount="1" stopTime="0.00" timeLoss="31.66" rerouteNo="0" devices="tripinfo_flow9.15" vType="vtypeauto" speedFactor="1.14" vaporized=""/>
    <tripinfo id="flow9.17" depart="47.20" departLane="A2B2_0" departPos="4.10" departSpeed="0.00" departDelay="13.20" arrival="97.80" arrivalLane="D2E2_0" arrivalPos="79.20" arrivalSpeed="8.52" duration="50.60" routeLength="375.10" waitingTime="6.00" waitingCount="1" stopTime="0.00" timeLoss="25.23" rerouteNo="0" devices="tripinfo_flow9.17" vType="vtypeauto" speedFactor="1.06" vaporized=""/>
    <tripinfo id="flow2.6" depart="16.60" departLane="A0A1_0" departPos="4.10" departSpeed="0.00" departDelay="4.60" arrival="99.00" arrivalLane="C3D3_0" arrivalPos="79.20" arrivalSpeed="14.11" duration="82.40" routeLength="540.89" waitingTime="11.70" waitingCount="1" stopTime="0.00" timeLoss="40.57" rerouteNo="0" devices="tripinfo_flow2.6" vType="vtypeauto" speedFactor="1.02" vaporized=""/>
    <tripinfo id="flow8.0" depart="2.80" departLane="D4D3_0" departPos="4.10" departSpeed="0.00" departDelay="2.80" arrival="101.00" arrivalLane="B1A1_1" arrivalPos="79.20" arrivalSpeed="13.00" duration="98.20" routeLength="563.33" waitingTime="23.70" waitingCount="3" stopTime="0.00" timeLoss="54.10" rerouteNo="0" devices="tripinfo_flow8.0" vType="vtypeauto" speedFactor="0.94" vaporized=""/>
    <tripinfo id="flow2.7" depart="19.40" departLane="A0A1_0" departPos="4.10" departSpeed="0.00" departDelay="5.40" arrival="101.90" arrivalLane="C3D3_0" arrivalPos="79.20" arrivalSpeed="13.02" duration="82.50" routeLength="540.89" waitingTime="11.20" waitingCount="2" stopTime="0.00" timeLoss="37.20" rerouteNo="0" devices="tripinfo_flow2.7" vType="vtypeauto" speedFactor="0.94" vaporized=""/>
    <tripinfo id="flow8.1" depart="8.40" departLane="D4D3_0" departPos="4.10" departSpeed="0.00" departDelay="6.40" arrival="102.90" arrivalLane="B1A1_0" arrivalPos="79.20" arrivalSpeed="12.90" duration="94.50" routeLength="563.33" waitingTime="19.80" waitingCount="2" stopTime="0.00" timeLoss="50.37" rerouteNo="0" devices="tripinfo_flow8.1" vType="vtypeauto" speedFactor="0.94" vaporized=""/>
    <tripinfo id="flow8.2" depart="14.00" departLane="D4D3_0" departPos="4.10" departSpeed="0.00" departDelay="10.00" arrival="104.40" arrivalLane="B1A1_0" arrivalPos="79.20" arrivalSpeed="15.67" duration="90.40" routeLength="563.33" waitingTime="17.00" waitingCount="1" stopTime="0.00" timeLoss="53.84" rerouteNo="0" devices="tripinfo_flow8.2" vType="vtypeauto" speedFactor="1.13" vaporized=""/>
    <tripinfo id="flow2.2" depart="5.60" departLane="A0A1_0" departPos="4.10" departSpeed="0.00" departDelay="1.60" arrival="104.70" arrivalLane="C3D3_0" arrivalPos="79.20" arrivalSpeed="13.54" duration="99.10" routeLength="540.89" waitingTime="20.80" waitingCount="4" stopTime="0.00" timeLoss="55.33" rerouteNo="0" devices="tripinfo_flow2.2" vType="vtypeauto" speedFactor="0.97" vaporized=""/>
    <tripinfo id="flow8.3" depart="19.60" departLane="D4D3_0" departPos="4.10" departSpeed="0.00" departDelay="13.60" arrival="105.80" arrivalLane="B1A1_0" arrivalPos="79.20" arrivalSpeed="15.21" duration="86.20" routeLength="563.33" waitingTime="15.30" waitingCount="1" stopTime="0.00" timeLoss="48.75" rerouteNo="0" devices="tripinfo_flow8.3" vType="vtypeauto" speedFactor="1.10" vaporized=""/>
    <tripinfo id="flow0.8" depart="17.10" departLane="B4B3_0" departPos="4.10" departSpeed="0.00" departDelay="1.10" arrival="106.60" arrivalLane="B3A3_1" arrivalPos="79.20" arrivalSpeed="14.34" duration="89.50" routeLength="570.75" waitingTime="32.40" waitingCount="1" stopTime="0.00" timeLoss="47.70" rerouteNo="0" devices="tripinfo_flow0.8" vType="vtypeauto" speedFactor="1.03" vaporized=""/>
    <tripinfo id="flow2.8" depart="22.20" departLane="A0A1_0" departPos="4.10" departSpeed="0.00" departDelay="6.20" arrival="107.70" arrivalLane="C3D3_0" arrivalPos="79.20" arrivalSpeed="14.11" duration="85.50" routeLength="540.89" waitingTime="14.00" waitingCount="4" stopTime="0.00" timeLoss="43.73" rerouteNo="0" devices="tripinfo_flow2.8" vType="vtypeauto" speedFactor="1.02" vaporized=""/>
    <tripinfo id="flow0.10" depart="21.30" departLane="B4B3_0" departPos="4.10" departSpeed="0.00" departDelay="1.30" arrival="108.10" arrivalLane="B3A3_1" arrivalPos="79.20" arrivalSpeed="14.74" duration="86.80" routeLength="570.75" waitingTime="24.40" waitingCount="4" stopTime="0.00" timeLoss="46.24" rerouteNo="0" devices="tripinfo_flow0.10" vType="vtypeauto" speedFactor="1.06" vaporized=""/>
    <tripinfo id="flow8.4" depart="25.20" departLane="D4D3_0" departPos="4.10" departSpeed="0.00" departDelay="17.20" arrival="110.90" arrivalLane="B1A1_0" arrivalPos="79.20" arrivalSpeed="12.17" duration="85.70" routeLength="563.33" waitingTime="10.70" waitingCount="1" stopTime="0.00" timeLoss="38.59" rerouteNo="0" devices="tripinfo_flow8.4" vType="vtypeauto" speedFactor="0.88" vaporized=""/>
    <tripinfo id="flow8.5" depart="30.80" departLane="D4D3_0" departPos="4.10" departSpeed="0.00" departDelay="20.80" arrival="112.40" arrivalLane="B1A1_0" arrivalPos="79.20" arrivalSpeed="14.21" duration="81.60" routeLength="563.33" waitingTime="7.10" waitingCount="1" stopTime="0.00" timeLoss="41.22" rerouteNo="0" devices="tripinfo_flow8.5" vType="vtypeauto" speedFactor="1.02" vaporized=""/>
    <tripinfo id="flow8.6" depart="36.30" departLane="D4D3_0" departPos="4.10" departSpeed="0.00" departDelay="24.30" arrival="113.90" arrivalLane="B1A1_0" arrivalPos="79.20" arrivalSpeed="14.36" duration="77.60" routeLength="563.33" waitingTime="2.80" waitingCount="1" stopTime="0.00" timeLoss="37.87" rerouteNo="0" devices="tripinfo_flow8.6" vType="vtypeauto" speedFactor="1.04" vaporized=""/>
    <tripinfo id="flow2.9" depart="25.10" departLane="A0A1_0" departPos="4.10" departSpeed="0.00" departDelay="7.10" arrival="114.40" arrivalLane="C3D3_0" arrivalPos="79.20" arrivalSpeed="11.53" duration="89.30" routeLength="540.89" waitingTime="10.80" waitingCount="2" stopTime="0.00" timeLoss="38.36" rerouteNo="0" devices="tripinfo_flow2.9" vType="vtypeauto" speedFactor="0.83" vaporized=""/>
    <tripinfo id="flow0.12" depart="26.70" departLane="B4B3_0" departPos="4.10" departSpeed="0.00" departDelay="2.70" arrival="114.40" arrivalLane="B3A3_1" arrivalPos="79.20" arrivalSpeed="13.01" duration="87.70" routeLength="570.75" waitingTime="21.20" waitingCount="2" stopTime="0.00" timeLoss="41.79" rerouteNo="0" devices="tripinfo_flow0.12" vType="vtypeauto" speedFactor="0.94" vaporized=""/>
    <tripinfo id="flow8.7" depart="41.90" departLane="D4D3_0" departPos="4.10" departSpeed="0.00" departDelay="27.90" arrival="115.40" arrivalLane="B1A1_0" arrivalPos="79.20" arrivalSpeed="13.97" duration="73.50" routeLength="563.33" waitingTime="0.00" waitingCount="0" stopTime="0.00" timeLoss="32.55" rerouteNo="0" devices="tripinfo_flow8.7" vType="vtypeauto" speedFactor="1.01" vaporized=""/>
    <tripinfo id="flow2.3" depart="8.40" departLane="A0A1_0" departPos="4.10" departSpeed="0.00" departDelay="2.40" arrival="116.00" arrivalLane="C3D3_0" arrivalPos="79.20" arrivalSpeed="13.90" duration="107.60" routeLength="540.89" waitingTime="19.50" waitingCount="5" stopTime="0.00" timeLoss="65.26" rerouteNo="0" devices="tripinfo_flow2.3" vType="vtypeauto" speedFactor="1.01" vaporized=""/>
    <tripinfo id="flow0.13" depart="29.40" departLane="B4B3_0" departPos="4.10" departSpeed="0.00" departDelay="3.40" arrival="116.30" arrivalLane="B3A3_1" arrivalPos="79.20" arrivalSpeed="14.32" duration="86.90" routeLength="570.75" waitingTime="19.10" waitingCount="3" stopTime="0.00" timeLoss="45.07" rerouteNo="0" devices="tripinfo_flow0.13" vType="vtypeauto" speedFactor="1.03" vaporized=""/>
    <tripinfo id="flow2.4" depart="11.10" departLane="A0A1_0" departPos="4.10" departSpeed="0.00" departDelay="3.10" arrival="117.70" arrivalLane="C3D3_0" arrivalPos="79.20" arrivalSpeed="15.16" duration="106.60" routeLength="540.89" waitingTime="17.40" waitingCount="3" stopTime="0.00" timeLoss="67.71" rerouteNo="0" devices="tripinfo_flow2.4" vType="vtypeauto" speedFactor="1.09" vaporized=""/>
    <tripinfo id="flow2.10" depart="27.90" departLane="A0A1_0" departPos="4.10" departSpeed="0.00" departDelay="7.90" arrival="120.70" arrivalLane="C3D3_0" arrivalPos="79.20" arrivalSpeed="13.33" duration="92.80" routeLength="540.89" waitingTime="13.70" waitingCount="10" stopTime="0.00" timeLoss="48.89" rerouteNo="0" devices="tripinfo_flow2.10" vType="vtypeauto" speedFactor="0.97" vaporized=""/>