<?xml version="1.0" encoding="UTF-8"?>

<!-- generated on 2024-10-30 19:01:34 by Eclipse SUMO sumo Version 1.20.0
<configuration xmlns:xsi="http://www.w3.org/2001/XMLSchema-instance" xsi:noNamespaceSchemaLocation="http://sumo.dlr.de/xsd/sumoConfiguration.xsd">

    <input>
        <net-file value="./sim_cfg_grid_2_lanes/grid.net.xml"/>
        <route-files value="./sim_cfg_grid_2_lanes/10x0.08.rou.xml"/>
    </input>

    <output>
        <tripinfo-output value="./sim_cfg_grid_2_lanes/tripinfo-platooning_0.095.xml"/>
    </output>

    <time>
        <begin value="0"/>
        <end value="500"/>
        <step-length value="0.1"/>
    </time>

    <traci_server>
        <remote-port value="50069"/>
    </traci_server>

    <gui_only>
        <gui-settings-file value="./sim_cfg_grid_2_lanes/gui_settings.xml"/>
    </gui_only>

</configuration>
-->

<tripinfos xmlns:xsi="http://www.w3.org/2001/XMLSchema-instance" xsi:noNamespaceSchemaLocation="http://sumo.dlr.de/xsd/tripinfo_file.xsd">
    <tripinfo id="flow1.0" depart="0.00" departLane="A3B3_0" departPos="4.10" departSpeed="0.00" departDelay="0.00" arrival="42.70" arrivalLane="D3E3_0" arrivalPos="79.20" arrivalSpeed="13.01" duration="42.70" routeLength="375.10" waitingTime="6.50" waitingCount="1" stopTime="0.00" timeLoss="13.86" rerouteNo="0" devices="tripinfo_flow1.0" vType="vtypeauto" speedFactor="0.94" vaporized=""/>
    <tripinfo id="flow9.0" depart="0.00" departLane="A2B2_0" departPos="4.10" departSpeed="0.00" departDelay="0.00" arrival="51.40" arrivalLane="D2E2_0" arrivalPos="79.20" arrivalSpeed="11.79" duration="51.40" routeLength="375.10" waitingTime="9.20" waitingCount="2" stopTime="0.00" timeLoss="19.88" rerouteNo="0" devices="tripinfo_flow9.0" vType="vtypeauto" speedFactor="0.86" vaporized=""/>
    <tripinfo id="flow4.0" depart="1.30" departLane="C0C1_0" departPos="4.10" departSpeed="0.00" departDelay="1.30" arrival="58.60" arrivalLane="C3C4_0" arrivalPos="79.20" arrivalSpeed="14.22" duration="57.30" routeLength="375.10" waitingTime="14.00" waitingCount="3" stopTime="0.00" timeLoss="31.06" rerouteNo="0" devices="tripinfo_flow4.0" vType="vtypeauto" speedFactor="1.03" vaporized=""/>
    <tripinfo id="flow4.1" depart="13.20" departLane="C0C1_0" departPos="4.10" departSpeed="0.00" departDelay="1.20" arrival="58.90" arrivalLane="C3C4_1" arrivalPos="79.20" arrivalSpeed="13.67" duration="45.70" routeLength="375.10" waitingTime="5.60" waitingCount="2" stopTime="0.00" timeLoss="18.40" rerouteNo="0" devices="tripinfo_flow4.1" vType="vtypeauto" speedFactor="0.99" vaporized=""/>
    <tripinfo id="flow6.0" depart="0.00" departLane="D4D3_0" departPos="4.10" departSpeed="0.00" departDelay="0.00" arrival="60.50" arrivalLane="D1D0_0" arrivalPos="79.20" arrivalSpeed="14.45" duration="60.50" routeLength="375.10" waitingTime="17.40" waitingCount="3" stopTime="0.00" timeLoss="34.62" rerouteNo="0" devices="tripinfo_flow6.0" vType="vtypeauto" speedFactor="1.05" vaporized=""/>
    <tripinfo id="flow6.1" depart="12.00" departLane="D4D3_0" departPos="4.10" departSpeed="0.00" departDelay="0.00" arrival="61.40" arrivalLane="D1D0_1" arrivalPos="79.20" arrivalSpeed="12.11" duration="49.40" routeLength="375.10" waitingTime="7.30" waitingCount="2" stopTime="0.00" timeLoss="18.64" rerouteNo="0" devices="tripinfo_flow6.1" vType="vtypeauto" speedFactor="0.88" vaporized=""/>
    <tripinfo id="flow1.1" depart="12.00" departLane="A3B3_0" departPos="4.10" departSpeed="0.00" departDelay="0.00" arrival="63.70" arrivalLane="D3E3_0" arrivalPos="79.20" arrivalSpeed="14.16" duration="51.70" routeLength="375.10" waitingTime="8.10" waitingCount="3" stopTime="0.00" timeLoss="25.30" rerouteNo="0" devices="tripinfo_flow1.1" vType="vtypeauto" speedFactor="1.03" vaporized=""/>
    <tripinfo id="flow2.0" depart="0.00" departLane="A0A1_0" departPos="4.10" departSpeed="0.00" departDelay="0.00" arrival="64.60" arrivalLane="C3D3_0" arrivalPos="79.20" arrivalSpeed="13.98" duration="64.60" routeLength="540.89" waitingTime="5.60" waitingCount="1" stopTime="0.00" timeLoss="22.54" rerouteNo="0" devices="tripinfo_flow2.0" vType="vtypeauto" speedFactor="1.01" vaporized=""/>
    <tripinfo id="flow2.1" depart="12.00" departLane="A0A1_0" departPos="4.10" departSpeed="0.00" departDelay="0.00" arrival="67.00" arrivalLane="C3D3_0" arrivalPos="79.20" arrivalSpeed="14.53" duration="55.00" routeLength="540.89" waitingTime="0.00" waitingCount="0" stopTime="0.00" timeLoss="14.27" rerouteNo="0" devices="tripinfo_flow2.1" vType="vtypeauto" speedFactor="1.05" vaporized=""/>
    <tripinfo id="flow0.0" depart="0.00" departLane="B4B3_0" departPos="4.10" departSpeed="0.00" departDelay="0.00" arrival="67.60" arrivalLane="B3A3_1" arrivalPos="79.20" arrivalSpeed="14.68" duration="67.60" routeLength="570.75" waitingTime="10.60" waitingCount="2" stopTime="0.00" timeLoss="26.81" rerouteNo="0" devices="tripinfo_flow0.0" vType="vtypeauto" speedFactor="1.06" vaporized=""/>
    <tripinfo id="flow6.3" depart="36.00" departLane="D4D3_0" departPos="4.10" departSpeed="0.00" departDelay="0.00" arrival="67.90" arrivalLane="D1D0_1" arrivalPos="79.20" arrivalSpeed="13.47" duration="31.90" routeLength="375.10" waitingTime="0.00" waitingCount="0" stopTime="0.00" timeLoss="4.11" rerouteNo="0" devices="tripinfo_flow6.3" vType="vtypeauto" speedFactor="0.97" vaporized=""/>
    <tripinfo id="flow0.1" depart="12.00" departLane="B4B3_0" departPos="4.10" departSpeed="0.00" departDelay="0.00" arrival="69.20" arrivalLane="B3A3_1" arrivalPos="79.20" arrivalSpeed="15.12" duration="57.20" routeLength="570.75" waitingTime="0.00" waitingCount="0" stopTime="0.00" timeLoss="17.57" rerouteNo="0" devices="tripinfo_flow0.1" vType="vtypeauto" speedFactor="1.09" vaporized=""/>
    <tripinfo id="flow6.2" depart="24.00" departLane="D4D3_0" departPos="4.10" departSpeed="0.00" departDelay="0.00" arrival="70.20" arrivalLane="D1D0_1" arrivalPos="79.20" arrivalSpeed="12.65" duration="46.20" routeLength="375.10" waitingTime="6.00" waitingCount="1" stopTime="0.00" timeLoss="16.75" rerouteNo="0" devices="tripinfo_flow6.2" vType="vtypeauto" speedFactor="0.92" vaporized=""/>
    <tripinfo id="flow9.3" depart="36.00" departLane="A2B2_0" departPos="4.10" departSpeed="0.00" departDelay="0.00" arrival="71.60" arrivalLane="D2E2_1" arrivalPos="79.20" arrivalSpeed="12.51" duration="35.60" routeLength="375.10" waitingTime="0.00" waitingCount="0" stopTime="0.00" timeLoss="5.56" rerouteNo="0" devices="tripinfo_flow9.3" vType="vtypeauto" speedFactor="0.90" vaporized=""/>
    <tripinfo id="flow9.1" depart="12.00" departLane="A2B2_0" departPos="4.10" departSpeed="0.00" departDelay="0.00" arrival="72.30" arrivalLane="D2E2_0" arrivalPos="79.20" arrivalSpeed="16.05" duration="60.30" routeLength="375.10" waitingTime="18.00" waitingCount="3" stopTime="0.00" timeLoss="36.97" rerouteNo="0" devices="tripinfo_flow9.1" vType="vtypeauto" speedFactor="1.16" vaporized=""/>
    <tripinfo id="flow9.2" depart="24.00" departLane="A2B2_0" departPos="4.10" departSpeed="0.00" departDelay="0.00" arrival="73.20" arrivalLane="D2E2_1" arrivalPos="79.20" arrivalSpeed="12.92" duration="49.20" routeLength="375.10" waitingTime="11.20" waitingCount="1" stopTime="0.00" timeLoss="20.16" rerouteNo="0" devices="tripinfo_flow9.2" vType="vtypeauto" speedFactor="0.93" vaporized=""/>
    <tripinfo id="flow1.3" depart="36.00" departLane="A3B3_0" departPos="4.10" departSpeed="0.00" departDelay="0.00" arrival="79.60" arrivalLane="D3E3_1" arrivalPos="79.20" arrivalSpeed="16.03" duration="43.60" routeLength="375.10" waitingTime="10.20" waitingCount="1" stopTime="0.00" timeLoss="20.20" rerouteNo="0" devices="tripinfo_flow1.3" vType="vtypeauto" speedFactor="1.15" vaporized=""/>
    <tripinfo id="flow5.0" depart="0.00" departLane="E2D2_0" departPos="4.10" departSpeed="0.00" departDelay="0.00" arrival="80.80" arrivalLane="B1A1_0" arrivalPos="79.20" arrivalSpeed="11.48" duration="80.80" routeLength="635.44" waitingTime="10.60" waitingCount="1" stopTime="0.00" timeLoss="20.60" rerouteNo="0" devices="tripinfo_flow5.0" vType="vtypeauto" speedFactor="0.83" vaporized=""/>
    <tripinfo id="flow1.2" depart="24.00" departLane="A3B3_0" departPos="4.10" departSpeed="0.00" departDelay="0.00" arrival="80.90" arrivalLane="D3E3_0" arrivalPos="79.20" arrivalSpeed="13.96" duration="56.90" routeLength="375.10" waitingTime="17.70" waitingCount="2" stopTime="0.00" timeLoss="30.11" rerouteNo="0" devices="tripinfo_flow1.2" vType="vtypeauto" speedFactor="1.01" vaporized=""/>
    <tripinfo id="flow1.4" depart="48.00" departLane="A3B3_0" departPos="4.10" departSpeed="0.00" departDelay="0.00" arrival="83.90" arrivalLane="D3E3_0" arrivalPos="79.20" arrivalSpeed="13.28" duration="35.90" routeLength="375.10" waitingTime="0.20" waitingCount="1" stopTime="0.00" timeLoss="7.66" rerouteNo="0" devices="tripinfo_flow1.4" vType="vtypeauto" speedFactor="0.96" vaporized=""/>
    <tripinfo id="flow4.4" depart="49.20" departLane="C0C1_0" departPos="4.10" departSpeed="0.00" departDelay="1.20" arrival="84.50" arrivalLane="C3C4_1" arrivalPos="79.20" arrivalSpeed="14.43" duration="35.30" routeLength="375.10" waitingTime="0.60" waitingCount="1" stopTime="0.00" timeLoss="9.37" rerouteNo="0" devices="tripinfo_flow4.4" vType="vtypeauto" speedFactor="1.04" vaporized=""/>
    <tripinfo id="flow4.2" depart="25.40" departLane="C0C1_0" departPos="4.10" departSpeed="0.00" departDelay="1.40" arrival="85.60" arrivalLane="C3C4_0" arrivalPos="79.20" arrivalSpeed="11.47" duration="60.20" routeLength="375.10" waitingTime="12.60" waitingCount="2" stopTime="0.00" timeLoss="27.44" rerouteNo="0" devices="tripinfo_flow4.2" vType="vtypeauto" speedFactor="0.83" vaporized=""/>
    <tripinfo id="flow8.1" depart="14.80" departLane="D4D3_0" departPos="4.10" departSpeed="0.00" departDelay="2.80" arrival="86.60" arrivalLane="B1A1_1" arrivalPos="79.20" arrivalSpeed="12.94" duration="71.80" routeLength="563.33" waitingTime="12.10" waitingCount="1" stopTime="0.00" timeLoss="27.65" rerouteNo="0" devices="tripinfo_flow8.1" vType="vtypeauto" speedFactor="0.94" vaporized=""/>
    <tripinfo id="flow4.3" depart="37.40" departLane="C0C1_0" departPos="4.10" departSpeed="0.00" departDelay="1.40" arrival="87.10" arrivalLane="C3C4_0" arrivalPos="79.20" arrivalSpeed="13.76" duration="49.70" routeLength="375.10" waitingTime="4.90" waitingCount="1" stopTime="0.00" timeLoss="22.52" rerouteNo="0" devices="tripinfo_flow4.3" vType="vtypeauto" speedFactor="0.99" vaporized=""/>
    <tripinfo id="flow8.2" depart="26.80" departLane="D4D3_0" departPos="4.10" departSpeed="0.00" departDelay="2.80" arrival="88.10" arrivalLane="B1A1_1" arrivalPos="79.20" arrivalSpeed="15.68" duration="61.30" routeLength="563.33" waitingTime="0.50" waitingCount="1" stopTime="0.00" timeLoss="24.71" rerouteNo="0" devices="tripinfo_flow8.2" vType="vtypeauto" speedFactor="1.13" vaporized=""/>
    <tripinfo id="flow8.0" depart="2.80" departLane="D4D3_0" departPos="4.10" departSpeed="0.00" departDelay="2.80" arrival="89.00" arrivalLane="B1A1_0" arrivalPos="79.20" arrivalSpeed="13.02" duration="86.20" routeLength="563.33" waitingTime="6.00" waitingCount="4" stopTime="0.00" timeLoss="42.12" rerouteNo="0" devices="tripinfo_flow8.0" vType="vtypeauto" speedFactor="0.94" vaporized=""/>
    <tripinfo id="flow8.3" depart="38.90" departLane="D4D3_0" departPos="4.10" departSpeed="0.00" departDelay="2.90" arrival="89.60" arrivalLane="B1A1_1" arrivalPos="79.20" arrivalSpeed="15.30" duration="50.70" routeLength="563.33" waitingTime="0.00" waitingCount="0" stopTime="0.00" timeLoss="13.14" rerouteNo="0" devices="tripinfo_flow8.3" vType="vtypeauto" speedFactor="1.10" vaporized=""/>
    <tripinfo id="flow9.4" depart="48.00" departLane="A2B2_0" departPos="4.10" departSpeed="0.00" departDelay="0.00" arrival="92.50" arrivalLane="D2E2_0" arrivalPos="79.20" arrivalSpeed="11.69" duration="44.50" routeLength="375.10" waitingTime="2.80" waitingCount="1" stopTime="0.00" timeLoss="12.72" rerouteNo="0" devices="tripinfo_flow9.4" vType="vtypeauto" speedFactor="0.85" vaporized=""/>
    <tripinfo id="flow6.4" depart="48.00" departLane="D4D3_0" departPos="4.10" departSpeed="0.00" departDelay="0.00" arrival="93.90" arrivalLane="D1D0_1" arrivalPos="79.20" arrivalSpeed="13.76" duration="45.90" routeLength="375.10" waitingTime="5.60" waitingCount="2" stopTime="0.00" timeLoss="18.81" rerouteNo="0" devices="tripinfo_flow6.4" vType="vtypeauto" speedFactor="1.00" vaporized=""/>
    <tripinfo id="flow1.5" depart="60.00" departLane="A3B3_0" departPos="4.10" departSpeed="0.00" departDelay="0.00" arrival="98.70" arrivalLane="D3E3_0" arrivalPos="79.20" arrivalSpeed="16.18" duration="38.70" routeLength="375.10" waitingTime="6.10" waitingCount="1" stopTime="0.00" timeLoss="15.52" rerouteNo="0" devices="tripinfo_flow1.5" vType="vtypeauto" speedFactor="1.17" vaporized=""/>
    <tripinfo id="flow1.6" depart="72.00" departLane="A3B3_0" departPos="4.10" departSpeed="0.00" departDelay="0.00" arrival="100.80" arrivalLane="D3E3_0" arrivalPos="79.20" arrivalSpeed="15.53" duration="28.80" routeLength="375.10" waitingTime="0.00" waitingCount="0" stopTime="0.00" timeLoss="4.62" rerouteNo="0" devices="tripinfo_flow1.6" vType="vtypeauto" speedFactor="1.12" vaporized=""/>
    <tripinfo id="flow2.2" depart="24.00" departLane="A0A1_0" departPos="4.10" departSpeed="0.00" departDelay="0.00" arrival="102.90" arrivalLane="C3D3_0" arrivalPos="79.20" arrivalSpeed="13.53" duration="78.90" routeLength="540.89" waitingTime="19.30" waitingCount="3" stopTime="0.00" timeLoss="35.27" rerouteNo="0" devices="tripinfo_flow2.2" vType="vtypeauto" speedFactor="0.97" vaporized=""/>
    <tripinfo id="flow2.3" depart="36.00" departLane="A0A1_0" departPos="4.10" departSpeed="0.00" departDelay="0.00" arrival="105.90" arrivalLane="C3D3_0" arrivalPos="79.20" arrivalSpeed="13.84" duration="69.90" routeLength="540.89" waitingTime="12.90" waitingCount="2" stopTime="0.00" timeLoss="27.67" rerouteNo="0" devices="tripinfo_flow2.3" vType="vtypeauto" speedFactor="1.01" vaporized=""/>
    <tripinfo id="flow2.4" depart="48.00" departLane="A0A1_0" departPos="4.10" departSpeed="0.00" departDelay="0.00" arrival="110.50" arrivalLane="C3D3_0" arrivalPos="79.20" arrivalSpeed="15.09" duration="62.50" routeLength="540.89" waitingTime="0.00" waitingCount="0" stopTime="0.00" timeLoss="23.46" rerouteNo="0" devices="tripinfo_flow2.4" vType="vtypeauto" speedFactor="1.09" vaporized=""/>
    <tripinfo id="flow9.5" depart="60.00" departLane="A2B2_0" departPos="4.10" departSpeed="0.00" departDelay="0.00" arrival="111.80" arrivalLane="D2E2_0" arrivalPos="79.20" arrivalSpeed="13.36" duration="51.80" routeLength="375.10" waitingTime="16.20" waitingCount="1" stopTime="0.00" timeLoss="23.95" rerouteNo="0" devices="tripinfo_flow9.5" vType="vtypeauto" speedFactor="0.97" vaporized=""/>
    <tripinfo id="flow9.6" depart="72.00" departLane="A2B2_0" departPos="4.10" departSpeed="0.00" departDelay="0.00" arrival="112.10" arrivalLane="D2E2_1" arrivalPos="79.20" arrivalSpeed="14.18" duration="40.10" routeLength="375.10" waitingTime="3.80" waitingCount="1" stopTime="0.00" timeLoss="13.68" rerouteNo="0" devices="tripinfo_flow9.6" vType="vtypeauto" speedFactor="1.02" vaporized=""/>
    <tripinfo id="flow5.1" depart="12.00" departLane="E2D2_0" departPos="4.10" departSpeed="0.00" departDelay="0.00" arrival="113.20" arrivalLane="B1A1_0" arrivalPos="79.20" arrivalSpeed="12.82" duration="101.20" routeLength="635.44" waitingTime="27.80" waitingCount="4" stopTime="0.00" timeLoss="47.26" rerouteNo="0" devices="tripinfo_flow5.1" vType="vtypeauto" speedFactor="0.93" vaporized=""/>
    <tripinfo id="flow6.6" depart="72.00" departLane="D4D3_0" departPos="4.10" departSpeed="0.00" departDelay="0.00" arrival="113.30" arrivalLane="D1D0_1" arrivalPos="79.20" arrivalSpeed="12.59" duration="41.30" routeLength="375.10" waitingTime="3.60" waitingCount="1" stopTime="0.00" timeLoss="11.44" rerouteNo="0" devices="tripinfo_flow6.6" vType="vtypeauto" speedFactor="0.91" vaporized=""/>
    <tripinfo id="flow9.7" depart="84.00" departLane="A2B2_0" departPos="4.10" departSpeed="0.00" departDelay="0.00" arrival="113.30" arrivalLane="D2E2_0" arrivalPos="79.20" arrivalSpeed="15.09" duration="29.30" routeLength="375.10" waitingTime="0.00" waitingCount="0" stopTime="0.00" timeLoss="4.43" rerouteNo="0" devices="tripinfo_flow9.7" vType="vtypeauto" speedFactor="1.09" vaporized=""/>
    <tripinfo id="flow6.5" depart="60.00" departLane="D4D3_0" departPos="4.10" departSpeed="0.00" departDelay="0.00" arrival="114.60" arrivalLane="D1D0_0" arrivalPos="79.20" arrivalSpeed="12.40" duration="54.60" routeLength="375.10" waitingTime="11.00" waitingCount="1" stopTime="0.00" timeLoss="24.56" rerouteNo="0" devices="tripinfo_flow6.5" vType="vtypeauto" speedFactor="0.90" vaporized=""/>
    <tripinfo id="flow0.3" depart="36.00" departLane="B4B3_0" departPos="4.10" departSpeed="0.00" departDelay="0.00" arrival="120.20" arrivalLane="B3A3_0" arrivalPos="79.20" arrivalSpeed="16.33" duration="84.20" routeLength="570.75" waitingTime="16.30" waitingCount="4" stopTime="0.00" timeLoss="47.50" rerouteNo="0" devices="tripinfo_flow0.3" vType="vtypeauto" speedFactor="1.18" vaporized=""/>
    <tripinfo id="flow0.2" depart="24.00" departLane="B4B3_0" departPos="4.10" departSpeed="0.00" departDelay="0.00" arrival="120.80" arrivalLane="B3A3_0" arrivalPos="79.20" arrivalSpeed="14.13" duration="96.80" routeLength="570.75" waitingTime="25.50" waitingCount="5" stopTime="0.00" timeLoss="54.36" rerouteNo="0" devices="tripinfo_flow0.2" vType="vtypeauto" speedFactor="1.02" vaporized=""/>
    <tripinfo id="flow8.4" depart="50.80" departLane="D4D3_0" departPos="4.10" departSpeed="0.00" departDelay="2.80" arrival="121.30" arrivalLane="B1A1_0" arrivalPos="79.20" arrivalSpeed="12.09" duration="70.50" routeLength="563.33" waitingTime="5.40" waitingCount="1" stopTime="0.00" timeLoss="23.36" rerouteNo="0" devices="tripinfo_flow8.4" vType="vtypeauto" speedFactor="0.88" vaporized=""/>
    <tripinfo id="flow0.4" depart="48.00" departLane="B4B3_0" departPos="4.10" departSpeed="0.00" departDelay="0.00" arrival="122.30" arrivalLane="B3A3_1" arrivalPos="79.20" arrivalSpeed="14.21" duration="74.30" routeLength="570.75" waitingTime="10.30" waitingCount="1" stopTime="0.00" timeLoss="32.36" rerouteNo="0" devices="tripinfo_flow0.4" vType="vtypeauto" speedFactor="1.03" vaporized=""/>
    <tripinfo id="flow0.5" depart="60.00" departLane="B4B3_0" departPos="4.10" departSpeed="0.00" departDelay="0.00" arrival="124.60" arrivalLane="B3A3_1" arrivalPos="79.20" arrivalSpeed="11.81" duration="64.60" routeLength="570.75" waitingTime="0.00" waitingCount="0" stopTime="0.00" timeLoss="14.08" rerouteNo="0" devices="tripinfo_flow0.5" vType="vtypeauto" speedFactor="0.85" vaporized=""/>
    <tripinfo id="flow4.5" depart="61.40" departLane="C0C1_0" departPos="4.10" departSpeed="0.00" departDelay="1.40" arrival="128.70" arrivalLane="C3C4_0" arrivalPos="79.20" arrivalSpeed="13.91" duration="67.30" routeLength="375.10" waitingTime="23.60" waitingCount="3" stopTime="0.00" timeLoss="40.36" rerouteNo="0" devices="tripinfo_flow4.5" vType="vtypeauto" speedFactor="1.00" vaporized=""/>
    <tripinfo id="flow4.6" depart="73.00" departLane="C0C1_0" departPos="4.10" departSpeed="0.00" departDelay="1.00" arrival="129.00" arrivalLane="C3C4_1" arrivalPos="79.20" arrivalSpeed="12.94" duration="56.00" routeLength="375.10" waitingTime="12.40" waitingCount="2" stopTime="0.00" timeLoss="27.12" rerouteNo="0" devices="tripinfo_flow4.6" vType="vtypeauto" speedFactor="0.94" vaporized=""/>
    <tripinfo id="flow3.0" depart="0.00" departLane="C0C1_0" departPos="4.10" departSpeed="0.00" departDelay="0.00" arrival="131.20" arrivalLane="D4E4_0" arrivalPos="83.20" arrivalSpeed="15.02" duration="131.20" routeLength="1101.23" waitingTime="13.00" waitingCount="3" stopTime="0.00" timeLoss="50.72" rerouteNo="0" devices="tripinfo_flow3.0" vType="vtypeauto" speedFactor="1.08" vaporized=""/>
    <tripinfo id="flow3.1" depart="12.00" departLane="C0C1_0" departPos="4.10" departSpeed="0.00" departDelay="0.00" arrival="133.80" arrivalLane="D4E4_0" arrivalPos="83.20" arrivalSpeed="15.57" duration="121.80" routeLength="1101.23" waitingTime="0.00" waitingCount="0" stopTime="0.00" timeLoss="44.17" rerouteNo="0" devices="tripinfo_flow3.1" vType="vtypeauto" speedFactor="1.12" vaporized=""/>
    <tripinfo id="flow2.5" depart="60.00" departLane="A0A1_0" departPos="4.10" departSpeed="0.00" departDelay="0.00" arrival="133.80" arrivalLane="C3D3_0" arrivalPos="79.20" arrivalSpeed="14.07" duration="73.80" routeLength="540.89" waitingTime="11.50" waitingCount="3" stopTime="0.00" timeLoss="32.04" rerouteNo="0" devices="tripinfo_flow2.5" vType="vtypeauto" speedFactor="1.02" vaporized=""/>
    <tripinfo id="flow6.8" depart="96.00" departLane="D4D3_0" departPos="4.10" departSpeed="0.00" departDelay="0.00" arrival="136.90" arrivalLane="D1D0_1" arrivalPos="79.20" arrivalSpeed="13.90" duration="40.90" routeLength="375.10" waitingTime="5.40" waitingCount="1" stopTime="0.00" timeLoss="13.86" rerouteNo="0" devices="tripinfo_flow6.8" vType="vtypeauto" speedFactor="1.00" vaporized=""/>
    <tripinfo id="flow6.7" depart="84.00" departLane="D4D3_0" departPos="4.10" departSpeed="0.00" departDelay="0.00" arrival="138.00" arrivalLane="D1D0_0" arrivalPos="79.20" arrivalSpeed="14.28" duration="54.00" routeLength="375.10" waitingTime="8.40" waitingCount="2" stopTime="0.00" timeLoss="27.79" rerouteNo="0" devices="tripinfo_flow6.7" vType="vtypeauto" speedFactor="1.03" vaporized=""/>
    <tripinfo id="flow2.6" depart="72.00" departLane="A0A1_0" departPos="4.10" departSpeed="0.00" departDelay="0.00" arrival="138.50" arrivalLane="C3D3_0" arrivalPos="79.20" arrivalSpeed="14.09" duration="66.50" routeLength="540.89" waitingTime="3.60" waitingCount="1" stopTime="0.00" timeLoss="24.69" rerouteNo="0" devices="tripinfo_flow2.6" vType="vtypeauto" speedFactor="1.02" vaporized=""/>
    <tripinfo id="flow8.6" depart="74.80" departLane="D4D3_0" departPos="4.10" departSpeed="0.00" departDelay="2.80" arrival="138.50" arrivalLane="B1A1_0" arrivalPos="79.20" arrivalSpeed="14.37" duration="63.70" routeLength="563.33" waitingTime="2.20" waitingCount="1" stopTime="0.00" timeLoss="23.94" rerouteNo="0" devices="tripinfo_flow8.6" vType="vtypeauto" speedFactor="1.04" vaporized=""/>
    <tripinfo id="flow8.5" depart="62.80" departLane="D4D3_0" departPos="4.10" departSpeed="0.00" departDelay="2.80" arrival="138.60" arrivalLane="B1A1_0" arrivalPos="79.20" arrivalSpeed="14.16" duration="75.80" routeLength="563.33" waitingTime="9.50" waitingCount="2" stopTime="0.00" timeLoss="35.40" rerouteNo="0" devices="tripinfo_flow8.5" vType="vtypeauto" speedFactor="1.02" vaporized=""/>
    <tripinfo id="flow4.8" depart="97.20" departLane="C0C1_0" departPos="4.10" departSpeed="0.00" departDelay="1.20" arrival="138.70" arrivalLane="C3C4_1" arrivalPos="79.20" arrivalSpeed="15.90" duration="41.50" routeLength="375.10" waitingTime="6.90" waitingCount="1" stopTime="0.00" timeLoss="17.90" rerouteNo="0" devices="tripinfo_flow4.8" vType="vtypeauto" speedFactor="1.15" vaporized=""/>
    <tripinfo id="flow0.6" depart="72.00" departLane="B4B3_0" departPos="4.10" departSpeed="0.00" departDelay="0.00" arrival="139.70" arrivalLane="B3A3_1" arrivalPos="79.20" arrivalSpeed="14.93" duration="67.70" routeLength="570.75" waitingTime="4.70" waitingCount="2" stopTime="0.00" timeLoss="27.82" rerouteNo="0" devices="tripinfo_flow0.6" vType="vtypeauto" speedFactor="1.08" vaporized=""/>
    <tripinfo id="flow1.7" depart="84.00" departLane="A3B3_0" departPos="4.10" departSpeed="0.00" departDelay="0.00" arrival="140.80" arrivalLane="D3E3_0" arrivalPos="79.20" arrivalSpeed="13.48" duration="56.80" routeLength="375.10" waitingTime="12.60" waitingCount="3" stopTime="0.00" timeLoss="28.96" rerouteNo="0" devices="tripinfo_flow1.7" vType="vtypeauto" speedFactor="0.97" vaporized=""/>
    <tripinfo id="flow4.7" depart="85.40" departLane="C0C1_0" departPos="4.10" departSpeed="0.00" departDelay="1.40" arrival="141.80" arrivalLane="C3C4_1" arrivalPos="79.20" arrivalSpeed="13.24" duration="56.40" routeLength="375.10" waitingTime="15.10" waitingCount="2" stopTime="0.00" timeLoss="28.08" rerouteNo="0" devices="tripinfo_flow4.7" vType="vtypeauto" speedFactor="0.96" vaporized=""/>
    <tripinfo id="flow9.9" depart="108.00" departLane="A2B2_0" departPos="4.10" departSpeed="0.00" departDelay="0.00" arrival="147.10" arrivalLane="D2E2_1" arrivalPos="79.20" arrivalSpeed="15.24" duration="39.10" routeLength="375.10" waitingTime="5.20" waitingCount="1" stopTime="0.00" timeLoss="14.43" rerouteNo="0" devices="tripinfo_flow9.9" vType="vtypeauto" speedFactor="1.10" vaporized=""/>
    <tripinfo id="flow9.8" depart="96.00" departLane="A2B2_0" departPos="4.10" departSpeed="0.00" departDelay="0.00" arrival="147.70" arrivalLane="D2E2_0" arrivalPos="79.20" arrivalSpeed="14.19" duration="51.70" routeLength="375.10" waitingTime="12.60" waitingCount="2" stopTime="0.00" timeLoss="25.19" rerouteNo="0" devices="tripinfo_flow9.8" vType="vtypeauto" speedFactor="1.02" vaporized=""/>
    <tripinfo id="flow6.9" depart="108.00" departLane="D4D3_0" departPos="4.10" departSpeed="0.00" departDelay="0.00" arrival="147.70" arrivalLane="D1D0_0" arrivalPos="79.20" arrivalSpeed="14.01" duration="39.70" routeLength="375.10" waitingTime="4.20" waitingCount="1" stopTime="0.00" timeLoss="12.89" rerouteNo="0" devices="tripinfo_flow6.9" vType="vtypeauto" speedFactor="1.01" vaporized=""/>
    <tripinfo id="flow5.2" depart="24.00" departLane="E2D2_0" departPos="4.10" departSpeed="0.00" departDelay="0.00" arrival="149.50" arrivalLane="B1A1_0" arrivalPos="79.20" arrivalSpeed="12.08" duration="125.50" routeLength="635.44" waitingTime="37.10" waitingCount="6" stopTime="0.00" timeLoss="68.09" rerouteNo="0" devices="tripinfo_flow5.2" vType="vtypeauto" speedFactor="0.87" vaporized=""/>
    <tripinfo id="flow8.7" depart="86.80" departLane="D4D3_0" departPos="4.10" departSpeed="0.00" departDelay="2.80" arrival="155.20" arrivalLane="B1A1_1" arrivalPos="79.20" arrivalSpeed="13.09" duration="68.40" routeLength="563.33" waitingTime="0.40" waitingCount="1" stopTime="0.00" timeLoss="27.37" rerouteNo="0" devices="tripinfo_flow8.7" vType="vtypeauto" speedFactor="1.01" vaporized=""/>
    <tripinfo id="flow8.8" depart="98.80" departLane="D4D3_0" departPos="4.10" departSpeed="0.00" departDelay="2.80" arrival="157.40" arrivalLane="B1A1_1" arrivalPos="79.20" arrivalSpeed="13.90" duration="58.60" routeLength="563.33" waitingTime="0.00" waitingCount="0" stopTime="0.00" timeLoss="17.57" rerouteNo="0" devices="tripinfo_flow8.8" vType="vtypeauto" speedFactor="1.01" vaporized=""/>
    <tripinfo id="flow3.2" depart="24.00" departLane="C0C1_0" departPos="4.10" departSpeed="0.00" departDelay="0.00" arrival="158.70" arrivalLane="D4E4_0" arrivalPos="83.20" arrivalSpeed="12.29" duration="134.70" routeLength="1101.23" waitingTime="13.40" waitingCount="4" stopTime="0.00" timeLoss="36.83" rerouteNo="0" devices="tripinfo_flow3.2" vType="vtypeauto" speedFactor="0.89" vaporized=""/>
    <tripinfo id="flow2.7" depart="84.00" departLane="A0A1_0" departPos="4.10" departSpeed="0.00" departDelay="0.00" arrival="161.20" arrivalLane="C3D3_0" arrivalPos="79.20" arrivalSpeed="13.04" duration="77.20" routeLength="540.89" waitingTime="8.40" waitingCount="2" stopTime="0.00" timeLoss="31.88" rerouteNo="0" devices="tripinfo_flow2.7" vType="vtypeauto" speedFactor="0.94" vaporized=""/>
    <tripinfo id="flow2.8" depart="96.00" departLane="A0A1_0" departPos="4.10" departSpeed="0.00" departDelay="0.00" arrival="163.00" arrivalLane="C3D3_0" arrivalPos="79.20" arrivalSpeed="14.02" duration="67.00" routeLength="540.89" waitingTime="0.00" waitingCount="0" stopTime="0.00" timeLoss="25.14" rerouteNo="0" devices="tripinfo_flow2.8" vType="vtypeauto" speedFactor="1.02" vaporized=""/>
    <tripinfo id="flow1.8" depart="96.00" departLane="A3B3_0" departPos="4.10" departSpeed="0.00" departDelay="0.00" arrival="163.70" arrivalLane="D3E3_0" arrivalPos="79.20" arrivalSpeed="13.80" duration="67.70" routeLength="375.10" waitingTime="24.00" waitingCount="3" stopTime="0.00" timeLoss="40.62" rerouteNo="0" devices="tripinfo_flow1.8" vType="vtypeauto" speedFactor="1.00" vaporized=""/>
    <tripinfo id="flow1.9" depart="108.00" departLane="A3B3_0" departPos="4.10" departSpeed="0.00" departDelay="0.00" arrival="164.20" arrivalLane="D3E3_1" arrivalPos="79.20" arrivalSpeed="12.29" duration="56.20" routeLength="375.10" waitingTime="14.40" waitingCount="2" stopTime="0.00" timeLoss="25.88" rerouteNo="0" devices="tripinfo_flow1.9" vType="vtypeauto" speedFactor="0.89" vaporized=""/>
    <tripinfo id="flow5.3" depart="36.00" departLane="E2D2_0" departPos="4.10" departSpeed="0.00" departDelay="0.00" arrival="164.80" arrivalLane="B1A1_0" arrivalPos="79.20" arrivalSpeed="14.15" duration="128.80" routeLength="635.44" waitingTime="35.40" waitingCount="4" stopTime="0.00" timeLoss="79.77" rerouteNo="0" devices="tripinfo_flow5.3" vType="vtypeauto" speedFactor="1.02" vaporized=""/>
    <tripinfo id="flow1.10" depart="120.00" departLane="A3B3_0" departPos="4.10" departSpeed="0.00" departDelay="0.00" arrival="165.30" arrivalLane="D3E3_0" arrivalPos="79.20" arrivalSpeed="13.22" duration="45.30" routeLength="375.10" waitingTime="0.20" waitingCount="1" stopTime="0.00" timeLoss="17.07" rerouteNo="0" devices="tripinfo_flow1.10" vType="vtypeauto" speedFactor="0.96" vaporized=""/>
    <tripinfo id="flow6.11" depart="132.00" departLane="D4D3_0" departPos="4.10" departSpeed="0.00" departDelay="0.00" arrival="167.40" arrivalLane="D1D0_1" arrivalPos="79.20" arrivalSpeed="16.32" duration="35.40" routeLength="375.10" waitingTime="3.20" waitingCount="1" stopTime="0.00" timeLoss="12.46" rerouteNo="0" devices="tripinfo_flow6.11" vType="vtypeauto" speedFactor="1.18" vaporized=""/>