<?xml version="1.0" encoding="UTF-8"?>

<!-- generated on 2024-08-17 12:51:11 by Eclipse SUMO GUI Version 1.20.0
<configuration xmlns:xsi="http://www.w3.org/2001/XMLSchema-instance" xsi:noNamespaceSchemaLocation="http://sumo.dlr.de/xsd/sumoConfiguration.xsd">

    <input>
        <net-file value="sim_cfg/4way.net.xml"/>
        <route-files value="sim_cfg/4way.rou.xml"/>
    </input>

    <output>
        <tripinfo-output value="sim_cfg/tripinfo2.xml"/>
    </output>

    <time>
        <begin value="0"/>
        <end value="500"/>
        <step-length value="0.1"/>
    </time>

    <traci_server>
        <remote-port value="49440"/>
    </traci_server>

    <gui_only>
        <gui-settings-file value="sim_cfg/gui_settings.xml"/>
    </gui_only>

</configuration>
-->

<tripinfos xmlns:xsi="http://www.w3.org/2001/XMLSchema-instance" xsi:noNamespaceSchemaLocation="http://sumo.dlr.de/xsd/tripinfo_file.xsd">
    <tripinfo id="flow4.0" depart="2.60" departLane="end2_junction_0" departPos="4.10" departSpeed="0.00" departDelay="2.60" arrival="39.50" arrivalLane="junction_end4_1" arrivalPos="486.40" arrivalSpeed="35.95" duration="36.90" routeLength="995.90" waitingTime="0.00" waitingCount="0" stopTime="0.00" timeLoss="9.22" rerouteNo="0" devices="tripinfo_flow4.0" vType="vtypeauto" speedFactor="1.03" vaporized=""/>
    <tripinfo id="flow10.0" depart="2.70" departLane="end4_junction_0" departPos="4.10" departSpeed="0.00" departDelay="2.70" arrival="39.50" arrivalLane="junction_end2_1" arrivalPos="486.40" arrivalSpeed="35.95" duration="36.80" routeLength="995.90" waitingTime="0.00" waitingCount="0" stopTime="0.00" timeLoss="9.13" rerouteNo="0" devices="tripinfo_flow10.0" vType="vtypeauto" speedFactor="1.09" vaporized=""/>
    <tripinfo id="flow3.0" depart="0.00" departLane="end2_junction_0" departPos="4.10" departSpeed="0.00" departDelay="0.00" arrival="45.10" arrivalLane="junction_end1_0" arrivalPos="486.40" arrivalSpeed="35.98" duration="45.10" routeLength="977.73" waitingTime="0.00" waitingCount="0" stopTime="0.00" timeLoss="16.89" rerouteNo="0" devices="tripinfo_flow3.0" vType="vtypeauto" speedFactor="1.08" vaporized=""/>
    <tripinfo id="flow0.0" depart="0.00" departLane="end1_junction_0" departPos="4.10" departSpeed="0.00" departDelay="0.00" arrival="45.70" arrivalLane="junction_end4_0" arrivalPos="486.40" arrivalSpeed="35.93" duration="45.70" routeLength="977.73" waitingTime="0.00" waitingCount="0" stopTime="0.00" timeLoss="17.42" rerouteNo="0" devices="tripinfo_flow0.0" vType="vtypeauto" speedFactor="1.06" vaporized=""/>
    <tripinfo id="flow6.0" depart="0.00" departLane="end3_junction_0" departPos="4.10" departSpeed="0.00" departDelay="0.00" arrival="45.70" arrivalLane="junction_end2_0" arrivalPos="486.40" arrivalSpeed="35.95" duration="45.70" routeLength="977.73" waitingTime="0.00" waitingCount="0" stopTime="0.00" timeLoss="17.45" rerouteNo="0" devices="tripinfo_flow6.0" vType="vtypeauto" speedFactor="1.05" vaporized=""/>
    <tripinfo id="flow9.0" depart="0.00" departLane="end4_junction_0" departPos="4.10" departSpeed="0.00" departDelay="0.00" arrival="47.00" arrivalLane="junction_end3_0" arrivalPos="486.40" arrivalSpeed="34.24" duration="47.00" routeLength="977.73" waitingTime="0.00" waitingCount="0" stopTime="0.00" timeLoss="17.09" rerouteNo="0" devices="tripinfo_flow9.0" vType="vtypeauto" speedFactor="0.86" vaporized=""/>
    <tripinfo id="flow10.1" depart="8.00" departLane="end4_junction_0" departPos="4.10" departSpeed="0.00" departDelay="7.00" arrival="49.70" arrivalLane="junction_end2_1" arrivalPos="486.40" arrivalSpeed="35.90" duration="41.70" routeLength="995.90" waitingTime="0.00" waitingCount="0" stopTime="0.00" timeLoss="13.98" rerouteNo="0" devices="tripinfo_flow10.1" vType="vtypeauto" speedFactor="0.97" vaporized=""/>
    <tripinfo id="flow4.1" depart="7.90" departLane="end2_junction_0" departPos="4.10" departSpeed="0.00" departDelay="6.90" arrival="50.20" arrivalLane="junction_end4_1" arrivalPos="486.40" arrivalSpeed="35.02" duration="42.30" routeLength="995.90" waitingTime="0.00" waitingCount="0" stopTime="0.00" timeLoss="13.88" rerouteNo="0" devices="tripinfo_flow4.1" vType="vtypeauto" speedFactor="0.88" vaporized=""/>
    <tripinfo id="flow9.1" depart="5.40" departLane="end4_junction_0" departPos="4.10" departSpeed="0.00" departDelay="4.40" arrival="51.30" arrivalLane="junction_end3_0" arrivalPos="486.40" arrivalSpeed="35.89" duration="45.90" routeLength="977.73" waitingTime="0.00" waitingCount="0" stopTime="0.00" timeLoss="17.57" rerouteNo="0" devices="tripinfo_flow9.1" vType="vtypeauto" speedFactor="1.01" vaporized=""/>
    <tripinfo id="flow3.1" depart="5.30" departLane="end2_junction_0" departPos="4.10" departSpeed="0.00" departDelay="4.30" arrival="51.50" arrivalLane="junction_end1_0" arrivalPos="486.40" arrivalSpeed="35.98" duration="46.20" routeLength="977.73" waitingTime="0.00" waitingCount="0" stopTime="0.00" timeLoss="17.76" rerouteNo="0" devices="tripinfo_flow3.1" vType="vtypeauto" speedFactor="0.93" vaporized=""/>
    <tripinfo id="flow0.1" depart="5.30" departLane="end1_junction_0" departPos="4.10" departSpeed="0.00" departDelay="4.30" arrival="51.80" arrivalLane="junction_end4_0" arrivalPos="486.40" arrivalSpeed="35.92" duration="46.50" routeLength="977.73" waitingTime="0.00" waitingCount="0" stopTime="0.00" timeLoss="18.28" rerouteNo="0" devices="tripinfo_flow0.1" vType="vtypeauto" speedFactor="1.05" vaporized=""/>
    <tripinfo id="flow6.1" depart="5.30" departLane="end3_junction_0" departPos="4.10" departSpeed="0.00" departDelay="4.30" arrival="52.50" arrivalLane="junction_end2_0" arrivalPos="486.40" arrivalSpeed="35.92" duration="47.20" routeLength="977.73" waitingTime="0.00" waitingCount="0" stopTime="0.00" timeLoss="18.72" rerouteNo="0" devices="tripinfo_flow6.1" vType="vtypeauto" speedFactor="0.94" vaporized=""/>
    <tripinfo id="flow4.2" depart="13.10" departLane="end2_junction_0" departPos="4.10" departSpeed="0.00" departDelay="11.10" arrival="55.80" arrivalLane="junction_end4_1" arrivalPos="486.40" arrivalSpeed="35.93" duration="42.70" routeLength="995.90" waitingTime="0.00" waitingCount="0" stopTime="0.00" timeLoss="14.94" rerouteNo="0" devices="tripinfo_flow4.2" vType="vtypeauto" speedFactor="1.13" vaporized=""/>
    <tripinfo id="flow10.2" depart="13.30" departLane="end4_junction_0" departPos="4.10" departSpeed="0.00" departDelay="11.30" arrival="55.90" arrivalLane="junction_end2_1" arrivalPos="486.40" arrivalSpeed="35.89" duration="42.60" routeLength="995.90" waitingTime="0.00" waitingCount="0" stopTime="0.00" timeLoss="14.93" rerouteNo="0" devices="tripinfo_flow10.2" vType="vtypeauto" speedFactor="0.99" vaporized=""/>
    <tripinfo id="flow9.2" depart="10.70" departLane="end4_junction_0" departPos="4.10" departSpeed="0.00" departDelay="8.70" arrival="56.30" arrivalLane="junction_end3_0" arrivalPos="486.40" arrivalSpeed="35.96" duration="45.60" routeLength="977.73" waitingTime="0.00" waitingCount="0" stopTime="0.00" timeLoss="17.50" rerouteNo="0" devices="tripinfo_flow9.2" vType="vtypeauto" speedFactor="1.17" vaporized=""/>
    <tripinfo id="flow6.2" depart="10.70" departLane="end3_junction_0" departPos="4.10" departSpeed="0.00" departDelay="8.70" arrival="57.00" arrivalLane="junction_end2_0" arrivalPos="486.40" arrivalSpeed="35.97" duration="46.30" routeLength="977.73" waitingTime="0.00" waitingCount="0" stopTime="0.00" timeLoss="18.19" rerouteNo="0" devices="tripinfo_flow6.2" vType="vtypeauto" speedFactor="1.18" vaporized=""/>
    <tripinfo id="flow3.2" depart="10.60" departLane="end2_junction_0" departPos="4.10" departSpeed="0.00" departDelay="8.60" arrival="57.40" arrivalLane="junction_end1_0" arrivalPos="486.40" arrivalSpeed="35.94" duration="46.80" routeLength="977.73" waitingTime="0.00" waitingCount="0" stopTime="0.00" timeLoss="18.45" rerouteNo="0" devices="tripinfo_flow3.2" vType="vtypeauto" speedFactor="0.95" vaporized=""/>
    <tripinfo id="flow0.2" depart="10.70" departLane="end1_junction_0" departPos="4.10" departSpeed="0.00" departDelay="8.70" arrival="59.60" arrivalLane="junction_end4_0" arrivalPos="486.40" arrivalSpeed="33.01" duration="48.90" routeLength="977.73" waitingTime="0.00" waitingCount="0" stopTime="0.00" timeLoss="17.97" rerouteNo="0" devices="tripinfo_flow0.2" vType="vtypeauto" speedFactor="0.83" vaporized=""/>
    <tripinfo id="flow4.3" depart="18.40" departLane="end2_junction_0" departPos="4.10" departSpeed="0.00" departDelay="15.40" arrival="61.30" arrivalLane="junction_end4_1" arrivalPos="486.40" arrivalSpeed="35.88" duration="42.90" routeLength="995.90" waitingTime="0.00" waitingCount="0" stopTime="0.00" timeLoss="15.17" rerouteNo="0" devices="tripinfo_flow4.3" vType="vtypeauto" speedFactor="1.03" vaporized=""/>
    <tripinfo id="flow10.3" depart="18.70" departLane="end4_junction_0" departPos="4.10" departSpeed="0.00" departDelay="15.70" arrival="61.40" arrivalLane="junction_end2_1" arrivalPos="486.40" arrivalSpeed="35.96" duration="42.70" routeLength="995.90" waitingTime="0.00" waitingCount="0" stopTime="0.00" timeLoss="15.03" rerouteNo="0" devices="tripinfo_flow10.3" vType="vtypeauto" speedFactor="1.00" vaporized=""/>
    <tripinfo id="flow9.3" depart="16.10" departLane="end4_junction_0" departPos="4.10" departSpeed="0.00" departDelay="13.10" arrival="62.50" arrivalLane="junction_end3_0" arrivalPos="486.40" arrivalSpeed="35.95" duration="46.40" routeLength="977.73" waitingTime="0.00" waitingCount="0" stopTime="0.00" timeLoss="18.22" rerouteNo="0" devices="tripinfo_flow9.3" vType="vtypeauto" speedFactor="1.09" vaporized=""/>
    <tripinfo id="flow3.3" depart="15.80" departLane="end2_junction_0" departPos="4.10" departSpeed="0.00" departDelay="12.80" arrival="63.10" arrivalLane="junction_end1_0" arrivalPos="486.40" arrivalSpeed="35.98" duration="47.30" routeLength="977.73" waitingTime="0.00" waitingCount="0" stopTime="0.00" timeLoss="18.87" rerouteNo="0" devices="tripinfo_flow3.3" vType="vtypeauto" speedFactor="0.90" vaporized=""/>
    <tripinfo id="flow6.3" depart="16.00" departLane="end3_junction_0" departPos="4.10" departSpeed="0.00" departDelay="13.00" arrival="63.20" arrivalLane="junction_end2_0" arrivalPos="486.40" arrivalSpeed="35.99" duration="47.20" routeLength="977.73" waitingTime="0.00" waitingCount="0" stopTime="0.00" timeLoss="19.02" rerouteNo="0" devices="tripinfo_flow6.3" vType="vtypeauto" speedFactor="1.09" vaporized=""/>
    <tripinfo id="flow0.3" depart="16.00" departLane="end1_junction_0" departPos="4.10" departSpeed="0.00" departDelay="13.00" arrival="63.70" arrivalLane="junction_end4_0" arrivalPos="486.40" arrivalSpeed="35.90" duration="47.70" routeLength="977.73" waitingTime="0.00" waitingCount="0" stopTime="0.00" timeLoss="19.32" rerouteNo="0" devices="tripinfo_flow0.3" vType="vtypeauto" speedFactor="0.97" vaporized=""/>
    <tripinfo id="flow3.4" depart="21.10" departLane="end2_junction_0" departPos="4.10" departSpeed="0.00" departDelay="17.10" arrival="67.20" arrivalLane="junction_end1_0" arrivalPos="486.40" arrivalSpeed="35.97" duration="46.10" routeLength="977.73" waitingTime="0.00" waitingCount="0" stopTime="0.00" timeLoss="17.97" rerouteNo="0" devices="tripinfo_flow3.4" vType="vtypeauto" speedFactor="1.17" vaporized=""/>
    <tripinfo id="flow10.4" depart="24.00" departLane="end4_junction_0" departPos="4.10" departSpeed="0.00" departDelay="20.00" arrival="67.20" arrivalLane="junction_end2_1" arrivalPos="486.40" arrivalSpeed="35.89" duration="43.20" routeLength="995.90" waitingTime="0.00" waitingCount="0" stopTime="0.00" timeLoss="15.54" rerouteNo="0" devices="tripinfo_flow10.4" vType="vtypeauto" speedFactor="1.02" vaporized=""/>
    <tripinfo id="flow9.4" depart="21.40" departLane="end4_junction_0" departPos="4.10" departSpeed="0.00" departDelay="17.40" arrival="67.60" arrivalLane="junction_end3_0" arrivalPos="486.40" arrivalSpeed="35.94" duration="46.20" routeLength="977.73" waitingTime="0.00" waitingCount="0" stopTime="0.00" timeLoss="18.04" rerouteNo="0" devices="tripinfo_flow9.4" vType="vtypeauto" speedFactor="1.14" vaporized=""/>
    <tripinfo id="flow4.4" depart="23.70" departLane="end2_junction_0" departPos="4.10" departSpeed="0.00" departDelay="19.70" arrival="68.70" arrivalLane="junction_end4_1" arrivalPos="486.40" arrivalSpeed="35.88" duration="45.00" routeLength="995.90" waitingTime="0.00" waitingCount="0" stopTime="0.00" timeLoss="17.28" rerouteNo="0" devices="tripinfo_flow4.4" vType="vtypeauto" speedFactor="1.02" vaporized=""/>
    <tripinfo id="flow6.4" depart="21.30" departLane="end3_junction_0" departPos="4.10" departSpeed="0.00" departDelay="17.30" arrival="69.30" arrivalLane="junction_end2_0" arrivalPos="486.40" arrivalSpeed="35.98" duration="48.00" routeLength="977.73" waitingTime="0.00" waitingCount="0" stopTime="0.00" timeLoss="19.72" rerouteNo="0" devices="tripinfo_flow6.4" vType="vtypeauto" speedFactor="1.00" vaporized=""/>
    <tripinfo id="flow0.4" depart="21.30" departLane="end1_junction_0" departPos="4.10" departSpeed="0.00" departDelay="17.30" arrival="69.90" arrivalLane="junction_end4_0" arrivalPos="486.40" arrivalSpeed="35.00" duration="48.60" routeLength="977.73" waitingTime="0.00" waitingCount="0" stopTime="0.00" timeLoss="19.39" rerouteNo="0" devices="tripinfo_flow0.4" vType="vtypeauto" speedFactor="0.88" vaporized=""/>
    <tripinfo id="flow4.5" depart="28.90" departLane="end2_junction_0" departPos="4.10" departSpeed="0.00" departDelay="23.90" arrival="72.20" arrivalLane="junction_end4_1" arrivalPos="486.40" arrivalSpeed="35.92" duration="43.30" routeLength="995.90" waitingTime="0.00" waitingCount="0" stopTime="0.00" timeLoss="15.61" rerouteNo="0" devices="tripinfo_flow4.5" vType="vtypeauto" speedFactor="0.94" vaporized=""/>
    <tripinfo id="flow10.5" depart="29.20" departLane="end4_junction_0" departPos="4.10" departSpeed="0.00" departDelay="24.20" arrival="72.30" arrivalLane="junction_end2_1" arrivalPos="486.40" arrivalSpeed="35.96" duration="43.10" routeLength="995.90" waitingTime="0.00" waitingCount="0" stopTime="0.00" timeLoss="15.38" rerouteNo="0" devices="tripinfo_flow10.5" vType="vtypeauto" speedFactor="1.02" vaporized=""/>
    <tripinfo id="flow9.5" depart="26.70" departLane="end4_junction_0" departPos="4.10" departSpeed="0.00" departDelay="21.70" arrival="73.60" arrivalLane="junction_end3_0" arrivalPos="486.40" arrivalSpeed="35.89" duration="46.90" routeLength="977.73" waitingTime="0.00" waitingCount="0" stopTime="0.00" timeLoss="18.67" rerouteNo="0" devices="tripinfo_flow9.5" vType="vtypeauto" speedFactor="1.02" vaporized=""/>
    <tripinfo id="flow0.5" depart="26.60" departLane="end1_junction_0" departPos="4.10" departSpeed="0.00" departDelay="21.60" arrival="74.40" arrivalLane="junction_end4_0" arrivalPos="486.40" arrivalSpeed="35.95" duration="47.80" routeLength="977.73" waitingTime="0.00" waitingCount="0" stopTime="0.00" timeLoss="19.65" rerouteNo="0" devices="tripinfo_flow0.5" vType="vtypeauto" speedFactor="1.08" vaporized=""/>
    <tripinfo id="flow3.5" depart="26.30" departLane="end2_junction_0" departPos="4.10" departSpeed="0.00" departDelay="21.30" arrival="75.00" arrivalLane="junction_end1_0" arrivalPos="486.40" arrivalSpeed="35.96" duration="48.70" routeLength="977.73" waitingTime="0.00" waitingCount="0" stopTime="0.00" timeLoss="20.31" rerouteNo="0" devices="tripinfo_flow3.5" vType="vtypeauto" speedFactor="0.99" vaporized=""/>
    <tripinfo id="flow6.5" depart="26.60" departLane="end3_junction_0" departPos="4.10" departSpeed="0.00" departDelay="21.60" arrival="75.50" arrivalLane="junction_end2_0" arrivalPos="486.40" arrivalSpeed="35.99" duration="48.90" routeLength="977.73" waitingTime="0.00" waitingCount="0" stopTime="0.00" timeLoss="20.41" rerouteNo="0" devices="tripinfo_flow6.5" vType="vtypeauto" speedFactor="0.91" vaporized=""/>
    <tripinfo id="flow4.6" depart="34.20" departLane="end2_junction_0" departPos="4.10" departSpeed="0.00" departDelay="28.20" arrival="77.90" arrivalLane="junction_end4_1" arrivalPos="486.40" arrivalSpeed="35.93" duration="43.70" routeLength="995.90" waitingTime="0.00" waitingCount="0" stopTime="0.00" timeLoss="16.04" rerouteNo="0" devices="tripinfo_flow4.6" vType="vtypeauto" speedFactor="1.03" vaporized=""/>
    <tripinfo id="flow10.6" depart="34.50" departLane="end4_junction_0" departPos="4.10" departSpeed="0.00" departDelay="28.50" arrival="78.00" arrivalLane="junction_end2_1" arrivalPos="486.40" arrivalSpeed="35.89" duration="43.50" routeLength="995.90" waitingTime="0.00" waitingCount="0" stopTime="0.00" timeLoss="15.80" rerouteNo="0" devices="tripinfo_flow10.6" vType="vtypeauto" speedFactor="1.02" vaporized=""/>
    <tripinfo id="flow3.6" depart="31.60" departLane="end2_junction_0" departPos="4.10" departSpeed="0.00" departDelay="25.60" arrival="78.80" arrivalLane="junction_end1_0" arrivalPos="486.40" arrivalSpeed="35.93" duration="47.20" routeLength="977.73" waitingTime="0.00" waitingCount="0" stopTime="0.00" timeLoss="18.84" rerouteNo="0" devices="tripinfo_flow3.6" vType="vtypeauto" speedFactor="0.98" vaporized=""/>
    <tripinfo id="flow9.6" depart="31.90" departLane="end4_junction_0" departPos="4.10" departSpeed="0.00" departDelay="25.90" arrival="78.90" arrivalLane="junction_end3_0" arrivalPos="486.40" arrivalSpeed="35.94" duration="47.00" routeLength="977.73" waitingTime="0.00" waitingCount="0" stopTime="0.00" timeLoss="18.71" rerouteNo="0" devices="tripinfo_flow9.6" vType="vtypeauto" speedFactor="1.00" vaporized=""/>
    <tripinfo id="flow6.6" depart="31.90" departLane="end3_junction_0" departPos="4.10" departSpeed="0.00" departDelay="25.90" arrival="80.20" arrivalLane="junction_end2_0" arrivalPos="486.40" arrivalSpeed="35.97" duration="48.30" routeLength="977.73" waitingTime="0.00" waitingCount="0" stopTime="0.00" timeLoss="20.07" rerouteNo="0" devices="tripinfo_flow6.6" vType="vtypeauto" speedFactor="1.01" vaporized=""/>
    <tripinfo id="flow0.6" depart="31.90" departLane="end1_junction_0" departPos="4.10" departSpeed="0.00" departDelay="25.90" arrival="80.80" arrivalLane="junction_end4_0" arrivalPos="486.40" arrivalSpeed="35.95" duration="48.90" routeLength="977.73" waitingTime="0.00" waitingCount="0" stopTime="0.00" timeLoss="20.51" rerouteNo="0" devices="tripinfo_flow0.6" vType="vtypeauto" speedFactor="0.94" vaporized=""/>
    <tripinfo id="flow3.7" depart="36.90" departLane="end2_junction_0" departPos="4.10" departSpeed="0.00" departDelay="29.90" arrival="83.90" arrivalLane="junction_end1_0" arrivalPos="486.40" arrivalSpeed="35.93" duration="47.00" routeLength="977.73" waitingTime="0.00" waitingCount="0" stopTime="0.00" timeLoss="18.72" rerouteNo="0" devices="tripinfo_flow3.7" vType="vtypeauto" speedFactor="1.04" vaporized=""/>
    <tripinfo id="flow0.7" depart="37.20" departLane="end1_junction_0" departPos="4.10" departSpeed="0.00" departDelay="30.20" arrival="85.00" arrivalLane="junction_end4_0" arrivalPos="486.40" arrivalSpeed="35.98" duration="47.80" routeLength="977.73" waitingTime="0.00" waitingCount="0" stopTime="0.00" timeLoss="19.67" rerouteNo="0" devices="tripinfo_flow0.7" vType="vtypeauto" speedFactor="1.15" vaporized=""/>
    <tripinfo id="flow9.7" depart="37.10" departLane="end4_junction_0" departPos="4.10" departSpeed="0.00" departDelay="30.10" arrival="85.00" arrivalLane="junction_end3_0" arrivalPos="486.40" arrivalSpeed="35.92" duration="47.90" routeLength="977.73" waitingTime="0.00" waitingCount="0" stopTime="0.00" timeLoss="19.43" rerouteNo="0" devices="tripinfo_flow9.7" vType="vtypeauto" speedFactor="0.92" vaporized=""/>
    <tripinfo id="flow6.7" depart="37.20" departLane="end3_junction_0" departPos="4.10" departSpeed="0.00" departDelay="30.20" arrival="85.70" arrivalLane="junction_end2_0" arrivalPos="486.40" arrivalSpeed="35.93" duration="48.50" routeLength="977.73" waitingTime="0.00" waitingCount="0" stopTime="0.00" timeLoss="20.22" rerouteNo="0" devices="tripinfo_flow6.7" vType="vtypeauto" speedFactor="1.02" vaporized=""/>
    <tripinfo id="flow3.8" depart="42.20" departLane="end2_junction_0" departPos="4.10" departSpeed="0.00" departDelay="34.20" arrival="89.60" arrivalLane="junction_end1_0" arrivalPos="486.40" arrivalSpeed="35.94" duration="47.40" routeLength="977.73" waitingTime="0.00" waitingCount="0" stopTime="0.00" timeLoss="19.28" rerouteNo="0" devices="tripinfo_flow3.8" vType="vtypeauto" speedFactor="1.10" vaporized=""/>
    <tripinfo id="flow9.8" depart="42.40" departLane="end4_junction_0" departPos="4.10" departSpeed="0.00" departDelay="34.40" arrival="90.10" arrivalLane="junction_end3_0" arrivalPos="486.40" arrivalSpeed="35.90" duration="47.70" routeLength="977.73" waitingTime="0.00" waitingCount="0" stopTime="0.00" timeLoss="19.42" rerouteNo="0" devices="tripinfo_flow9.8" vType="vtypeauto" speedFactor="1.07" vaporized=""/>
    <tripinfo id="flow0.8" depart="42.50" departLane="end1_junction_0" departPos="4.10" departSpeed="0.00" departDelay="34.50" arrival="91.50" arrivalLane="junction_end4_0" arrivalPos="486.40" arrivalSpeed="35.89" duration="49.00" routeLength="977.73" waitingTime="0.00" waitingCount="0" stopTime="0.00" timeLoss="20.65" rerouteNo="0" devices="tripinfo_flow0.8" vType="vtypeauto" speedFactor="1.01" vaporized=""/>
    <tripinfo id="flow6.8" depart="42.50" departLane="end3_junction_0" departPos="4.10" departSpeed="0.00" departDelay="34.50" arrival="91.70" arrivalLane="junction_end2_0" arrivalPos="486.40" arrivalSpeed="35.99" duration="49.20" routeLength="977.73" waitingTime="0.00" waitingCount="0" stopTime="0.00" timeLoss="20.82" rerouteNo="0" devices="tripinfo_flow6.8" vType="vtypeauto" speedFactor="0.97" vaporized=""/>
    <tripinfo id="flow11.0" depart="2.80" departLane="end4_junction_0" departPos="4.10" departSpeed="0.00" departDelay="2.80" arrival="93.60" arrivalLane="junction_end1_2" arrivalPos="486.40" arrivalSpeed="35.91" duration="90.80" routeLength="993.21" waitingTime="40.20" waitingCount="1" stopTime="0.00" timeLoss="61.50" rerouteNo="0" devices="tripinfo_flow11.0" vType="vtypeauto" speedFactor="1.03" vaporized=""/>
    <tripinfo id="flow5.0" depart="2.70" departLane="end2_junction_0" departPos="4.10" departSpeed="0.00" departDelay="2.70" arrival="94.50" arrivalLane="junction_end3_2" arrivalPos="486.40" arrivalSpeed="33.21" duration="91.80" routeLength="993.21" waitingTime="39.80" waitingCount="1" stopTime="0.00" timeLoss="59.75" rerouteNo="0" devices="tripinfo_flow5.0" vType="vtypeauto" speedFactor="0.83" vaporized=""/>
    <tripinfo id="flow11.1" depart="8.10" departLane="end4_junction_0" departPos="4.10" departSpeed="0.00" departDelay="7.10" arrival="95.40" arrivalLane="junction_end1_2" arrivalPos="486.40" arrivalSpeed="35.55" duration="87.30" routeLength="993.21" waitingTime="30.40" waitingCount="1" stopTime="0.00" timeLoss="57.36" rerouteNo="0" devices="tripinfo_flow11.1" vType="vtypeauto" speedFactor="0.89" vaporized=""/>
    <tripinfo id="flow5.1" depart="8.00" departLane="end2_junction_0" departPos="4.10" departSpeed="0.00" departDelay="7.00" arrival="95.70" arrivalLane="junction_end3_2" arrivalPos="486.40" arrivalSpeed="35.38" duration="87.70" routeLength="993.21" waitingTime="30.70" waitingCount="1" stopTime="0.00" timeLoss="58.18" rerouteNo="0" devices="tripinfo_flow5.1" vType="vtypeauto" speedFactor="0.94" vaporized=""/>
    <tripinfo id="flow3.9" depart="47.40" departLane="end2_junction_0" departPos="4.10" departSpeed="0.00" departDelay="38.40" arrival="96.30" arrivalLane="junction_end1_0" arrivalPos="486.40" arrivalSpeed="34.63" duration="48.90" routeLength="977.73" waitingTime="0.00" waitingCount="0" stopTime="0.00" timeLoss="19.28" rerouteNo="0" devices="tripinfo_flow3.9" vType="vtypeauto" speedFactor="0.87" vaporized=""/>
    <tripinfo id="flow11.2" depart="13.40" departLane="end4_junction_0" departPos="4.10" departSpeed="0.00" departDelay="11.40" arrival="96.50" arrivalLane="junction_end1_2" arrivalPos="486.40" arrivalSpeed="35.97" duration="83.10" routeLength="993.21" waitingTime="26.00" waitingCount="1" stopTime="0.00" timeLoss="53.82" rerouteNo="0" devices="tripinfo_flow11.2" vType="vtypeauto" speedFactor="1.02" vaporized=""/>
    <tripinfo id="flow6.9" depart="47.80" departLane="end3_junction_0" departPos="4.10" departSpeed="0.00" departDelay="38.80" arrival="96.70" arrivalLane="junction_end2_0" arrivalPos="486.40" arrivalSpeed="35.96" duration="48.90" routeLength="977.73" waitingTime="0.00" waitingCount="0" stopTime="0.00" timeLoss="20.69" rerouteNo="0" devices="tripinfo_flow6.9" vType="vtypeauto" speedFactor="1.10" vaporized=""/>
    <tripinfo id="flow0.9" depart="47.80" departLane="end1_junction_0" departPos="4.10" departSpeed="0.00" departDelay="38.80" arrival="96.80" arrivalLane="junction_end4_0" arrivalPos="486.40" arrivalSpeed="35.98" duration="49.00" routeLength="977.73" waitingTime="0.00" waitingCount="0" stopTime="0.00" timeLoss="20.79" rerouteNo="0" devices="tripinfo_flow0.9" vType="vtypeauto" speedFactor="1.06" vaporized=""/>
    <tripinfo id="flow5.2" depart="13.20" departLane="end2_junction_0" departPos="4.10" departSpeed="0.00" departDelay="11.20" arrival="96.90" arrivalLane="junction_end3_2" arrivalPos="486.40" arrivalSpeed="35.89" duration="83.70" routeLength="993.21" waitingTime="25.80" waitingCount="1" stopTime="0.00" timeLoss="54.25" rerouteNo="0" devices="tripinfo_flow5.2" vType="vtypeauto" speedFactor="0.93" vaporized=""/>
    <tripinfo id="flow9.9" depart="47.70" departLane="end4_junction_0" departPos="4.10" departSpeed="0.00" departDelay="38.70" arrival="97.40" arrivalLane="junction_end3_0" arrivalPos="486.40" arrivalSpeed="35.89" duration="49.70" routeLength="977.73" waitingTime="0.00" waitingCount="0" stopTime="0.00" timeLoss="21.44" rerouteNo="0" devices="tripinfo_flow9.9" vType="vtypeauto" speedFactor="1.00" vaporized=""/>
    <tripinfo id="flow5.3" depart="18.50" departLane="end2_junction_0" departPos="4.10" departSpeed="0.00" departDelay="15.50" arrival="98.40" arrivalLane="junction_end3_2" arrivalPos="486.40" arrivalSpeed="35.89" duration="79.90" routeLength="993.21" waitingTime="21.40" waitingCount="1" stopTime="0.00" timeLoss="50.49" rerouteNo="0" devices="tripinfo_flow5.3" vType="vtypeauto" speedFactor="0.96" vaporized=""/>
    <tripinfo id="flow11.3" depart="18.80" departLane="end4_junction_0" departPos="4.10" departSpeed="0.00" departDelay="15.80" arrival="98.50" arrivalLane="junction_end1_2" arrivalPos="486.40" arrivalSpeed="35.90" duration="79.70" routeLength="993.21" waitingTime="20.90" waitingCount="1" stopTime="0.00" timeLoss="50.18" rerouteNo="0" devices="tripinfo_flow11.3" vType="vtypeauto" speedFactor="0.90" vaporized=""/>
    <tripinfo id="flow5.4" depart="23.80" departLane="end2_junction_0" departPos="4.10" departSpeed="0.00" departDelay="19.80" arrival="99.50" arrivalLane="junction_end3_2" arrivalPos="486.40" arrivalSpeed="35.95" duration="75.70" routeLength="993.21" waitingTime="18.70" waitingCount="1" stopTime="0.00" timeLoss="46.53" rerouteNo="0" devices="tripinfo_flow5.4" vType="vtypeauto" speedFactor="1.10" vaporized=""/>
    <tripinfo id="flow11.4" depart="24.10" departLane="end4_junction_0" departPos="4.10" departSpeed="0.00" departDelay="20.10" arrival="99.90" arrivalLane="junction_end1_2" arrivalPos="486.40" arrivalSpeed="35.89" duration="75.80" routeLength="993.21" waitingTime="16.20" waitingCount="1" stopTime="0.00" timeLoss="46.39" rerouteNo="0" devices="tripinfo_flow11.4" vType="vtypeauto" speedFactor="0.97" vaporized=""/>
    <tripinfo id="flow11.5" depart="29.30" departLane="end4_junction_0" departPos="4.10" departSpeed="0.00" departDelay="24.30" arrival="101.30" arrivalLane="junction_end1_2" arrivalPos="486.40" arrivalSpeed="35.89" duration="72.00" routeLength="993.21" waitingTime="12.10" waitingCount="1" stopTime="0.00" timeLoss="42.67" rerouteNo="0" devices="tripinfo_flow11.5" vType="vtypeauto" speedFactor="0.97" vaporized=""/>
    <tripinfo id="flow9.10" depart="53.00" departLane="end4_junction_0" departPos="4.10" departSpeed="0.00" departDelay="43.00" arrival="101.50" arrivalLane="junction_end3_0" arrivalPos="486.40" arrivalSpeed="35.95" duration="48.50" routeLength="977.73" waitingTime="0.00" waitingCount="0" stopTime="0.00" timeLoss="20.20" rerouteNo="0" devices="tripinfo_flow9.10" vType="vtypeauto" speedFactor="1.01" vaporized=""/>
    <tripinfo id="flow5.5" depart="29.00" departLane="end2_junction_0" departPos="4.10" departSpeed="0.00" departDelay="24.00" arrival="102.10" arrivalLane="junction_end3_2" arrivalPos="486.40" arrivalSpeed="35.19" duration="73.10" routeLength="993.21" waitingTime="12.40" waitingCount="1" stopTime="0.00" timeLoss="42.93" rerouteNo="0" devices="tripinfo_flow5.5" vType="vtypeauto" speedFactor="0.88" vaporized=""/>
    <tripinfo id="flow6.10" depart="53.10" departLane="end3_junction_0" departPos="4.10" departSpeed="0.00" departDelay="43.10" arrival="102.20" arrivalLane="junction_end2_0" arrivalPos="486.40" arrivalSpeed="35.88" duration="49.10" routeLength="977.73" waitingTime="0.00" waitingCount="0" stopTime="0.00" timeLoss="20.80" rerouteNo="0" devices="tripinfo_flow6.10" vType="vtypeauto" speedFactor="1.03" vaporized=""/>
    <tripinfo id="flow3.10" depart="52.70" departLane="end2_junction_0" departPos="4.10" departSpeed="0.00" departDelay="42.70" arrival="102.50" arrivalLane="junction_end1_0" arrivalPos="486.40" arrivalSpeed="35.93" duration="49.80" routeLength="977.73" waitingTime="0.00" waitingCount="0" stopTime="0.00" timeLoss="21.53" rerouteNo="0" devices="tripinfo_flow3.10" vType="vtypeauto" speedFactor="1.02" vaporized=""/>
    <tripinfo id="flow0.10" depart="53.10" departLane="end1_junction_0" departPos="4.10" departSpeed="0.00" departDelay="43.10" arrival="102.70" arrivalLane="junction_end4_0" arrivalPos="486.40" arrivalSpeed="35.97" duration="49.60" routeLength="977.73" waitingTime="0.00" waitingCount="0" stopTime="0.00" timeLoss="21.24" rerouteNo="0" devices="tripinfo_flow0.10" vType="vtypeauto" speedFactor="0.94" vaporized=""/>