<?xml version="1.0" encoding="UTF-8"?>

<!-- generated on 2024-10-28 20:41:36 by Eclipse SUMO sumo Version 1.20.0
<configuration xmlns:xsi="http://www.w3.org/2001/XMLSchema-instance" xsi:noNamespaceSchemaLocation="http://sumo.dlr.de/xsd/sumoConfiguration.xsd">

    <input>
        <net-file value="./sim_cfg_3_lanes/4way.net.xml"/>
        <route-files value="./sim_cfg_3_lanes/12x0.08.rou.xml"/>
    </input>

    <output>
        <tripinfo-output value="./sim_cfg_3_lanes/tripinfo-platooning_0.121.xml"/>
    </output>

    <time>
        <begin value="0"/>
        <end value="500"/>
        <step-length value="0.1"/>
    </time>

    <traci_server>
        <remote-port value="49439"/>
    </traci_server>

    <gui_only>
        <gui-settings-file value="./sim_cfg_3_lanes/gui_settings.xml"/>
    </gui_only>

</configuration>
-->

<tripinfos xmlns:xsi="http://www.w3.org/2001/XMLSchema-instance" xsi:noNamespaceSchemaLocation="http://sumo.dlr.de/xsd/tripinfo_file.xsd">
    <tripinfo id="flow10.0" depart="2.80" departLane="end4_junction_0" departPos="4.10" departSpeed="0.00" departDelay="2.80" arrival="39.60" arrivalLane="junction_end2_1" arrivalPos="486.40" arrivalSpeed="35.99" duration="36.80" routeLength="995.90" waitingTime="0.00" waitingCount="0" stopTime="0.00" timeLoss="9.12" rerouteNo="0" devices="tripinfo_flow10.0" vType="vtypeauto" speedFactor="1.09" vaporized=""/>
    <tripinfo id="flow4.0" depart="2.80" departLane="end2_junction_0" departPos="4.10" departSpeed="0.00" departDelay="2.80" arrival="39.70" arrivalLane="junction_end4_1" arrivalPos="486.40" arrivalSpeed="35.92" duration="36.90" routeLength="995.90" waitingTime="0.00" waitingCount="0" stopTime="0.00" timeLoss="9.21" rerouteNo="0" devices="tripinfo_flow4.0" vType="vtypeauto" speedFactor="1.03" vaporized=""/>
    <tripinfo id="flow3.0" depart="0.00" departLane="end2_junction_0" departPos="4.10" departSpeed="0.00" departDelay="0.00" arrival="45.10" arrivalLane="junction_end1_0" arrivalPos="486.40" arrivalSpeed="35.97" duration="45.10" routeLength="977.73" waitingTime="0.00" waitingCount="0" stopTime="0.00" timeLoss="16.90" rerouteNo="0" devices="tripinfo_flow3.0" vType="vtypeauto" speedFactor="1.08" vaporized=""/>
    <tripinfo id="flow0.0" depart="0.00" departLane="end1_junction_0" departPos="4.10" departSpeed="0.00" departDelay="0.00" arrival="45.70" arrivalLane="junction_end4_0" arrivalPos="486.40" arrivalSpeed="35.89" duration="45.70" routeLength="977.73" waitingTime="0.00" waitingCount="0" stopTime="0.00" timeLoss="17.49" rerouteNo="0" devices="tripinfo_flow0.0" vType="vtypeauto" speedFactor="1.06" vaporized=""/>
    <tripinfo id="flow6.0" depart="0.00" departLane="end3_junction_0" departPos="4.10" departSpeed="0.00" departDelay="0.00" arrival="45.80" arrivalLane="junction_end2_0" arrivalPos="486.40" arrivalSpeed="35.94" duration="45.80" routeLength="977.73" waitingTime="0.00" waitingCount="0" stopTime="0.00" timeLoss="17.51" rerouteNo="0" devices="tripinfo_flow6.0" vType="vtypeauto" speedFactor="1.05" vaporized=""/>
    <tripinfo id="flow9.0" depart="0.00" departLane="end4_junction_0" departPos="4.10" departSpeed="0.00" departDelay="0.00" arrival="47.20" arrivalLane="junction_end3_0" arrivalPos="486.40" arrivalSpeed="34.28" duration="47.20" routeLength="977.73" waitingTime="0.00" waitingCount="0" stopTime="0.00" timeLoss="17.27" rerouteNo="0" devices="tripinfo_flow9.0" vType="vtypeauto" speedFactor="0.86" vaporized=""/>
    <tripinfo id="flow9.1" depart="12.00" departLane="end4_junction_0" departPos="4.10" departSpeed="0.00" departDelay="0.00" arrival="57.80" arrivalLane="junction_end3_0" arrivalPos="486.40" arrivalSpeed="35.93" duration="45.80" routeLength="977.73" waitingTime="0.00" waitingCount="0" stopTime="0.00" timeLoss="17.51" rerouteNo="0" devices="tripinfo_flow9.1" vType="vtypeauto" speedFactor="1.01" vaporized=""/>
    <tripinfo id="flow3.1" depart="12.00" departLane="end2_junction_0" departPos="4.10" departSpeed="0.00" departDelay="0.00" arrival="58.30" arrivalLane="junction_end1_0" arrivalPos="486.40" arrivalSpeed="35.88" duration="46.30" routeLength="977.73" waitingTime="0.00" waitingCount="0" stopTime="0.00" timeLoss="17.90" rerouteNo="0" devices="tripinfo_flow3.1" vType="vtypeauto" speedFactor="0.93" vaporized=""/>
    <tripinfo id="flow11.0" depart="2.90" departLane="end4_junction_0" departPos="4.10" departSpeed="0.00" departDelay="2.90" arrival="58.60" arrivalLane="junction_end1_2" arrivalPos="486.40" arrivalSpeed="35.95" duration="55.70" routeLength="993.21" waitingTime="5.00" waitingCount="1" stopTime="0.00" timeLoss="26.41" rerouteNo="0" devices="tripinfo_flow11.0" vType="vtypeauto" speedFactor="1.03" vaporized=""/>
    <tripinfo id="flow0.1" depart="12.00" departLane="end1_junction_0" departPos="4.10" departSpeed="0.00" departDelay="0.00" arrival="58.90" arrivalLane="junction_end4_0" arrivalPos="486.40" arrivalSpeed="35.90" duration="46.90" routeLength="977.73" waitingTime="0.00" waitingCount="0" stopTime="0.00" timeLoss="18.53" rerouteNo="0" devices="tripinfo_flow0.1" vType="vtypeauto" speedFactor="1.05" vaporized=""/>
    <tripinfo id="flow6.1" depart="12.00" departLane="end3_junction_0" departPos="4.10" departSpeed="0.00" departDelay="0.00" arrival="59.10" arrivalLane="junction_end2_0" arrivalPos="486.40" arrivalSpeed="35.96" duration="47.10" routeLength="977.73" waitingTime="0.00" waitingCount="0" stopTime="0.00" timeLoss="18.64" rerouteNo="0" devices="tripinfo_flow6.1" vType="vtypeauto" speedFactor="0.94" vaporized=""/>
    <tripinfo id="flow5.0" depart="2.90" departLane="end2_junction_0" departPos="4.10" departSpeed="0.00" departDelay="2.90" arrival="59.50" arrivalLane="junction_end3_2" arrivalPos="486.40" arrivalSpeed="33.21" duration="56.60" routeLength="993.21" waitingTime="4.50" waitingCount="1" stopTime="0.00" timeLoss="24.61" rerouteNo="0" devices="tripinfo_flow5.0" vType="vtypeauto" speedFactor="0.83" vaporized=""/>
    <tripinfo id="flow5.1" depart="14.90" departLane="end2_junction_0" departPos="4.10" departSpeed="0.00" departDelay="2.90" arrival="62.90" arrivalLane="junction_end3_2" arrivalPos="486.40" arrivalSpeed="35.94" duration="48.00" routeLength="993.21" waitingTime="0.00" waitingCount="0" stopTime="0.00" timeLoss="18.51" rerouteNo="0" devices="tripinfo_flow5.1" vType="vtypeauto" speedFactor="0.94" vaporized=""/>
    <tripinfo id="flow11.1" depart="14.90" departLane="end4_junction_0" departPos="4.10" departSpeed="0.00" departDelay="2.90" arrival="63.50" arrivalLane="junction_end1_2" arrivalPos="486.40" arrivalSpeed="35.57" duration="48.60" routeLength="993.21" waitingTime="0.00" waitingCount="0" stopTime="0.00" timeLoss="18.71" rerouteNo="0" devices="tripinfo_flow11.1" vType="vtypeauto" speedFactor="0.89" vaporized=""/>
    <tripinfo id="flow6.2" depart="24.00" departLane="end3_junction_0" departPos="4.10" departSpeed="0.00" departDelay="0.00" arrival="70.30" arrivalLane="junction_end2_0" arrivalPos="486.40" arrivalSpeed="35.99" duration="46.30" routeLength="977.73" waitingTime="0.00" waitingCount="0" stopTime="0.00" timeLoss="18.20" rerouteNo="0" devices="tripinfo_flow6.2" vType="vtypeauto" speedFactor="1.18" vaporized=""/>
    <tripinfo id="flow9.2" depart="24.00" departLane="end4_junction_0" departPos="4.10" departSpeed="0.00" departDelay="0.00" arrival="70.40" arrivalLane="junction_end3_0" arrivalPos="486.40" arrivalSpeed="35.97" duration="46.40" routeLength="977.73" waitingTime="0.00" waitingCount="0" stopTime="0.00" timeLoss="18.26" rerouteNo="0" devices="tripinfo_flow9.2" vType="vtypeauto" speedFactor="1.17" vaporized=""/>
    <tripinfo id="flow3.2" depart="24.00" departLane="end2_junction_0" departPos="4.10" departSpeed="0.00" departDelay="0.00" arrival="71.40" arrivalLane="junction_end1_0" arrivalPos="486.40" arrivalSpeed="35.90" duration="47.40" routeLength="977.73" waitingTime="0.00" waitingCount="0" stopTime="0.00" timeLoss="18.94" rerouteNo="0" devices="tripinfo_flow3.2" vType="vtypeauto" speedFactor="0.95" vaporized=""/>
    <tripinfo id="flow0.2" depart="24.00" departLane="end1_junction_0" departPos="4.10" departSpeed="0.00" departDelay="0.00" arrival="72.90" arrivalLane="junction_end4_0" arrivalPos="486.40" arrivalSpeed="33.00" duration="48.90" routeLength="977.73" waitingTime="0.00" waitingCount="0" stopTime="0.00" timeLoss="17.80" rerouteNo="0" devices="tripinfo_flow0.2" vType="vtypeauto" speedFactor="0.83" vaporized=""/>
    <tripinfo id="flow7.0" depart="2.80" departLane="end3_junction_0" departPos="4.10" departSpeed="0.00" departDelay="2.80" arrival="74.40" arrivalLane="junction_end1_1" arrivalPos="486.40" arrivalSpeed="35.38" duration="71.60" routeLength="995.90" waitingTime="23.30" waitingCount="1" stopTime="0.00" timeLoss="43.44" rerouteNo="0" devices="tripinfo_flow7.0" vType="vtypeauto" speedFactor="0.89" vaporized=""/>
    <tripinfo id="flow1.0" depart="2.80" departLane="end1_junction_0" departPos="4.10" departSpeed="0.00" departDelay="2.80" arrival="74.70" arrivalLane="junction_end3_1" arrivalPos="486.40" arrivalSpeed="35.99" duration="71.90" routeLength="995.90" waitingTime="23.40" waitingCount="1" stopTime="0.00" timeLoss="44.21" rerouteNo="0" devices="tripinfo_flow1.0" vType="vtypeauto" speedFactor="0.94" vaporized=""/>
    <tripinfo id="flow7.1" depart="14.80" departLane="end3_junction_0" departPos="4.10" departSpeed="0.00" departDelay="2.80" arrival="75.70" arrivalLane="junction_end1_1" arrivalPos="486.40" arrivalSpeed="35.94" duration="60.90" routeLength="995.90" waitingTime="7.40" waitingCount="1" stopTime="0.00" timeLoss="33.18" rerouteNo="0" devices="tripinfo_flow7.1" vType="vtypeauto" speedFactor="1.16" vaporized=""/>
    <tripinfo id="flow1.1" depart="14.80" departLane="end1_junction_0" departPos="4.10" departSpeed="0.00" departDelay="2.80" arrival="75.90" arrivalLane="junction_end3_1" arrivalPos="486.40" arrivalSpeed="35.95" duration="61.10" routeLength="995.90" waitingTime="7.40" waitingCount="1" stopTime="0.00" timeLoss="33.38" rerouteNo="0" devices="tripinfo_flow1.1" vType="vtypeauto" speedFactor="1.12" vaporized=""/>
    <tripinfo id="flow7.2" depart="26.80" departLane="end3_junction_0" departPos="4.10" departSpeed="0.00" departDelay="2.80" arrival="76.90" arrivalLane="junction_end1_1" arrivalPos="486.40" arrivalSpeed="35.99" duration="50.10" routeLength="995.90" waitingTime="0.00" waitingCount="0" stopTime="0.00" timeLoss="22.34" rerouteNo="0" devices="tripinfo_flow7.2" vType="vtypeauto" speedFactor="1.15" vaporized=""/>
    <tripinfo id="flow1.2" depart="26.70" departLane="end1_junction_0" departPos="4.10" departSpeed="0.00" departDelay="2.70" arrival="77.10" arrivalLane="junction_end3_1" arrivalPos="486.40" arrivalSpeed="34.88" duration="50.40" routeLength="995.90" waitingTime="0.00" waitingCount="0" stopTime="0.00" timeLoss="21.82" rerouteNo="0" devices="tripinfo_flow1.2" vType="vtypeauto" speedFactor="0.87" vaporized=""/>
    <tripinfo id="flow7.3" depart="38.80" departLane="end3_junction_0" departPos="4.10" departSpeed="0.00" departDelay="2.80" arrival="81.20" arrivalLane="junction_end1_1" arrivalPos="486.40" arrivalSpeed="36.00" duration="42.40" routeLength="995.90" waitingTime="0.00" waitingCount="0" stopTime="0.00" timeLoss="14.72" rerouteNo="0" devices="tripinfo_flow7.3" vType="vtypeauto" speedFactor="1.04" vaporized=""/>
    <tripinfo id="flow1.3" depart="38.80" departLane="end1_junction_0" departPos="4.10" departSpeed="0.00" departDelay="2.80" arrival="81.40" arrivalLane="junction_end3_1" arrivalPos="486.40" arrivalSpeed="35.98" duration="42.60" routeLength="995.90" waitingTime="0.00" waitingCount="0" stopTime="0.00" timeLoss="14.89" rerouteNo="0" devices="tripinfo_flow1.3" vType="vtypeauto" speedFactor="1.18" vaporized=""/>
    <tripinfo id="flow6.3" depart="36.00" departLane="end3_junction_0" departPos="4.10" departSpeed="0.00" departDelay="0.00" arrival="81.60" arrivalLane="junction_end2_0" arrivalPos="486.40" arrivalSpeed="35.99" duration="45.60" routeLength="977.73" waitingTime="0.00" waitingCount="0" stopTime="0.00" timeLoss="17.46" rerouteNo="0" devices="tripinfo_flow6.3" vType="vtypeauto" speedFactor="1.09" vaporized=""/>
    <tripinfo id="flow0.3" depart="36.00" departLane="end1_junction_0" departPos="4.10" departSpeed="0.00" departDelay="0.00" arrival="82.10" arrivalLane="junction_end4_0" arrivalPos="486.40" arrivalSpeed="35.89" duration="46.10" routeLength="977.73" waitingTime="0.00" waitingCount="0" stopTime="0.00" timeLoss="17.73" rerouteNo="0" devices="tripinfo_flow0.3" vType="vtypeauto" speedFactor="0.97" vaporized=""/>
    <tripinfo id="flow9.3" depart="36.00" departLane="end4_junction_0" departPos="4.10" departSpeed="0.00" departDelay="0.00" arrival="82.70" arrivalLane="junction_end3_0" arrivalPos="486.40" arrivalSpeed="35.99" duration="46.70" routeLength="977.73" waitingTime="0.00" waitingCount="0" stopTime="0.00" timeLoss="18.58" rerouteNo="0" devices="tripinfo_flow9.3" vType="vtypeauto" speedFactor="1.09" vaporized=""/>
    <tripinfo id="flow3.3" depart="36.00" departLane="end2_junction_0" departPos="4.10" departSpeed="0.00" departDelay="0.00" arrival="83.40" arrivalLane="junction_end1_0" arrivalPos="486.40" arrivalSpeed="35.94" duration="47.40" routeLength="977.73" waitingTime="0.00" waitingCount="0" stopTime="0.00" timeLoss="18.99" rerouteNo="0" devices="tripinfo_flow3.3" vType="vtypeauto" speedFactor="0.90" vaporized=""/>
    <tripinfo id="flow6.4" depart="48.00" departLane="end3_junction_0" departPos="4.10" departSpeed="0.00" departDelay="0.00" arrival="94.40" arrivalLane="junction_end2_0" arrivalPos="486.40" arrivalSpeed="35.89" duration="46.40" routeLength="977.73" waitingTime="0.00" waitingCount="0" stopTime="0.00" timeLoss="18.05" rerouteNo="0" devices="tripinfo_flow6.4" vType="vtypeauto" speedFactor="1.00" vaporized=""/>
    <tripinfo id="flow3.4" depart="48.00" departLane="end2_junction_0" departPos="4.10" departSpeed="0.00" departDelay="0.00" arrival="94.60" arrivalLane="junction_end1_0" arrivalPos="486.40" arrivalSpeed="35.97" duration="46.60" routeLength="977.73" waitingTime="0.00" waitingCount="0" stopTime="0.00" timeLoss="18.43" rerouteNo="0" devices="tripinfo_flow3.4" vType="vtypeauto" speedFactor="1.17" vaporized=""/>
    <tripinfo id="flow0.4" depart="48.00" departLane="end1_junction_0" departPos="4.10" departSpeed="0.00" departDelay="0.00" arrival="94.90" arrivalLane="junction_end4_0" arrivalPos="486.40" arrivalSpeed="35.06" duration="46.90" routeLength="977.73" waitingTime="0.00" waitingCount="0" stopTime="0.00" timeLoss="17.69" rerouteNo="0" devices="tripinfo_flow0.4" vType="vtypeauto" speedFactor="0.88" vaporized=""/>
    <tripinfo id="flow9.4" depart="48.00" departLane="end4_junction_0" departPos="4.10" departSpeed="0.00" departDelay="0.00" arrival="95.00" arrivalLane="junction_end3_0" arrivalPos="486.40" arrivalSpeed="35.94" duration="47.00" routeLength="977.73" waitingTime="0.00" waitingCount="0" stopTime="0.00" timeLoss="18.82" rerouteNo="0" devices="tripinfo_flow9.4" vType="vtypeauto" speedFactor="1.14" vaporized=""/>
    <tripinfo id="flow8.0" depart="2.90" departLane="end3_junction_0" departPos="4.10" departSpeed="0.00" departDelay="2.90" arrival="99.10" arrivalLane="junction_end4_2" arrivalPos="486.40" arrivalSpeed="35.95" duration="96.20" routeLength="993.21" waitingTime="43.70" waitingCount="1" stopTime="0.00" timeLoss="66.69" rerouteNo="0" devices="tripinfo_flow8.0" vType="vtypeauto" speedFactor="0.94" vaporized=""/>
    <tripinfo id="flow2.0" depart="2.90" departLane="end1_junction_0" departPos="4.10" departSpeed="0.00" departDelay="2.90" arrival="99.20" arrivalLane="junction_end2_2" arrivalPos="486.40" arrivalSpeed="35.88" duration="96.30" routeLength="993.21" waitingTime="43.30" waitingCount="1" stopTime="0.00" timeLoss="66.96" rerouteNo="0" devices="tripinfo_flow2.0" vType="vtypeauto" speedFactor="1.01" vaporized=""/>
    <tripinfo id="flow8.4" depart="50.90" departLane="end3_junction_0" departPos="4.10" departSpeed="0.00" departDelay="2.90" arrival="103.00" arrivalLane="junction_end4_2" arrivalPos="486.40" arrivalSpeed="35.86" duration="52.10" routeLength="993.21" waitingTime="0.00" waitingCount="0" stopTime="0.00" timeLoss="22.41" rerouteNo="0" devices="tripinfo_flow8.4" vType="vtypeauto" speedFactor="0.90" vaporized=""/>
    <tripinfo id="flow2.4" depart="50.90" departLane="end1_junction_0" departPos="4.10" departSpeed="0.00" departDelay="2.90" arrival="103.40" arrivalLane="junction_end2_2" arrivalPos="486.40" arrivalSpeed="34.14" duration="52.50" routeLength="993.21" waitingTime="0.00" waitingCount="0" stopTime="0.00" timeLoss="21.30" rerouteNo="0" devices="tripinfo_flow2.4" vType="vtypeauto" speedFactor="0.85" vaporized=""/>
    <tripinfo id="flow9.5" depart="60.00" departLane="end4_junction_0" departPos="4.10" departSpeed="0.00" departDelay="0.00" arrival="107.60" arrivalLane="junction_end3_0" arrivalPos="486.40" arrivalSpeed="35.96" duration="47.60" routeLength="977.73" waitingTime="0.00" waitingCount="0" stopTime="0.00" timeLoss="19.30" rerouteNo="0" devices="tripinfo_flow9.5" vType="vtypeauto" speedFactor="1.02" vaporized=""/>
    <tripinfo id="flow3.5" depart="60.00" departLane="end2_junction_0" departPos="4.10" departSpeed="0.00" departDelay="0.00" arrival="108.00" arrivalLane="junction_end1_0" arrivalPos="486.40" arrivalSpeed="35.99" duration="48.00" routeLength="977.73" waitingTime="0.00" waitingCount="0" stopTime="0.00" timeLoss="19.61" rerouteNo="0" devices="tripinfo_flow3.5" vType="vtypeauto" speedFactor="0.99" vaporized=""/>
    <tripinfo id="flow6.5" depart="60.00" departLane="end3_junction_0" departPos="4.10" departSpeed="0.00" departDelay="0.00" arrival="109.10" arrivalLane="junction_end2_2" arrivalPos="486.40" arrivalSpeed="35.91" duration="49.10" routeLength="977.73" waitingTime="0.00" waitingCount="0" stopTime="0.00" timeLoss="20.58" rerouteNo="0" devices="tripinfo_flow6.5" vType="vtypeauto" speedFactor="0.91" vaporized=""/>
    <tripinfo id="flow8.5" depart="62.90" departLane="end3_junction_0" departPos="4.10" departSpeed="0.00" departDelay="2.90" arrival="109.40" arrivalLane="junction_end4_2" arrivalPos="486.40" arrivalSpeed="35.92" duration="46.50" routeLength="993.21" waitingTime="0.00" waitingCount="0" stopTime="0.00" timeLoss="17.29" rerouteNo="0" devices="tripinfo_flow8.5" vType="vtypeauto" speedFactor="1.04" vaporized=""/>
    <tripinfo id="flow2.5" depart="62.90" departLane="end1_junction_0" departPos="4.10" departSpeed="0.00" departDelay="2.90" arrival="110.40" arrivalLane="junction_end2_2" arrivalPos="486.40" arrivalSpeed="35.92" duration="47.50" routeLength="993.21" waitingTime="0.00" waitingCount="0" stopTime="0.00" timeLoss="18.22" rerouteNo="0" devices="tripinfo_flow2.5" vType="vtypeauto" speedFactor="1.02" vaporized=""/>
    <tripinfo id="flow8.3" depart="38.90" departLane="end3_junction_0" departPos="4.10" departSpeed="0.00" departDelay="2.90" arrival="112.70" arrivalLane="junction_end4_2" arrivalPos="486.40" arrivalSpeed="29.77" duration="73.80" routeLength="993.21" waitingTime="4.00" waitingCount="1" stopTime="0.00" timeLoss="43.83" rerouteNo="0" devices="tripinfo_flow8.3" vType="vtypeauto@flow8.3" speedFactor="1.35" vaporized=""/>
    <tripinfo id="flow2.3" depart="38.90" departLane="end1_junction_0" departPos="4.10" departSpeed="0.00" departDelay="2.90" arrival="113.60" arrivalLane="junction_end2_2" arrivalPos="486.40" arrivalSpeed="27.51" duration="74.70" routeLength="993.21" waitingTime="4.20" waitingCount="1" stopTime="0.00" timeLoss="44.71" rerouteNo="0" devices="tripinfo_flow2.3" vType="vtypeauto@flow2.3" speedFactor="1.35" vaporized=""/>
    <tripinfo id="flow0.5" depart="60.00" departLane="end1_junction_0" departPos="4.10" departSpeed="0.00" departDelay="0.00" arrival="113.90" arrivalLane="junction_end4_2" arrivalPos="486.40" arrivalSpeed="30.20" duration="53.90" routeLength="977.73" waitingTime="0.00" waitingCount="0" stopTime="0.00" timeLoss="25.71" rerouteNo="0" devices="tripinfo_flow0.5" vType="vtypeauto" speedFactor="1.08" vaporized=""/>
    <tripinfo id="flow2.1" depart="14.90" departLane="end1_junction_0" departPos="4.10" departSpeed="0.00" departDelay="2.90" arrival="115.30" arrivalLane="junction_end2_0" arrivalPos="486.40" arrivalSpeed="13.94" duration="100.40" routeLength="993.21" waitingTime="27.70" waitingCount="1" stopTime="0.00" timeLoss="50.01" rerouteNo="0" devices="tripinfo_flow2.1" vType="vtypeauto@flow2.1" speedFactor="0.35" vaporized=""/>
    <tripinfo id="flow8.1" depart="14.90" departLane="end3_junction_0" departPos="4.10" departSpeed="0.00" departDelay="2.90" arrival="115.40" arrivalLane="junction_end4_0" arrivalPos="486.40" arrivalSpeed="13.96" duration="100.50" routeLength="993.21" waitingTime="27.80" waitingCount="1" stopTime="0.00" timeLoss="50.05" rerouteNo="0" devices="tripinfo_flow8.1" vType="vtypeauto@flow8.1" speedFactor="0.35" vaporized=""/>
    <tripinfo id="flow2.2" depart="26.80" departLane="end1_junction_0" departPos="4.10" departSpeed="0.00" departDelay="2.80" arrival="116.00" arrivalLane="junction_end2_1" arrivalPos="486.40" arrivalSpeed="13.91" duration="89.20" routeLength="993.21" waitingTime="18.50" waitingCount="1" stopTime="0.00" timeLoss="38.37" rerouteNo="0" devices="tripinfo_flow2.2" vType="vtypeauto@flow2.2" speedFactor="0.35" vaporized=""/>
    <tripinfo id="flow8.2" depart="26.90" departLane="end3_junction_0" departPos="4.10" departSpeed="0.00" departDelay="2.90" arrival="116.00" arrivalLane="junction_end4_1" arrivalPos="486.40" arrivalSpeed="13.97" duration="89.10" routeLength="993.21" waitingTime="15.60" waitingCount="1" stopTime="0.00" timeLoss="38.31" rerouteNo="0" devices="tripinfo_flow8.2" vType="vtypeauto@flow8.2" speedFactor="0.35" vaporized=""/>
    <tripinfo id="flow6.6" depart="72.00" departLane="end3_junction_0" departPos="4.10" departSpeed="0.00" departDelay="0.00" arrival="119.10" arrivalLane="junction_end2_2" arrivalPos="486.40" arrivalSpeed="35.99" duration="47.10" routeLength="977.73" waitingTime="0.00" waitingCount="0" stopTime="0.00" timeLoss="18.85" rerouteNo="0" devices="tripinfo_flow6.6" vType="vtypeauto" speedFactor="1.01" vaporized=""/>
    <tripinfo id="flow0.6" depart="72.00" departLane="end1_junction_0" departPos="4.10" departSpeed="0.00" departDelay="0.00" arrival="119.60" arrivalLane="junction_end4_2" arrivalPos="486.40" arrivalSpeed="35.88" duration="47.60" routeLength="977.73" waitingTime="0.00" waitingCount="0" stopTime="0.00" timeLoss="19.12" rerouteNo="0" devices="tripinfo_flow0.6" vType="vtypeauto" speedFactor="0.94" vaporized=""/>
    <tripinfo id="flow3.6" depart="72.00" departLane="end2_junction_0" departPos="4.10" departSpeed="0.00" departDelay="0.00" arrival="120.00" arrivalLane="junction_end1_0" arrivalPos="486.40" arrivalSpeed="35.88" duration="48.00" routeLength="977.73" waitingTime="0.00" waitingCount="0" stopTime="0.00" timeLoss="19.61" rerouteNo="0" devices="tripinfo_flow3.6" vType="vtypeauto" speedFactor="0.98" vaporized=""/>
    <tripinfo id="flow9.6" depart="72.00" departLane="end4_junction_0" departPos="4.10" departSpeed="0.00" departDelay="0.00" arrival="120.20" arrivalLane="junction_end3_0" arrivalPos="486.40" arrivalSpeed="35.91" duration="48.20" routeLength="977.73" waitingTime="0.00" waitingCount="0" stopTime="0.00" timeLoss="19.81" rerouteNo="0" devices="tripinfo_flow9.6" vType="vtypeauto" speedFactor="1.00" vaporized=""/>
    <tripinfo id="flow10.1" depart="14.80" departLane="end4_junction_0" departPos="4.10" departSpeed="0.00" departDelay="2.80" arrival="125.00" arrivalLane="junction_end2_1" arrivalPos="486.40" arrivalSpeed="35.89" duration="110.20" routeLength="995.90" waitingTime="58.70" waitingCount="1" stopTime="0.00" timeLoss="82.44" rerouteNo="0" devices="tripinfo_flow10.1" vType="vtypeauto" speedFactor="0.97" vaporized=""/>
    <tripinfo id="flow4.1" depart="14.80" departLane="end2_junction_0" departPos="4.10" departSpeed="0.00" departDelay="2.80" arrival="125.30" arrivalLane="junction_end4_1" arrivalPos="486.40" arrivalSpeed="35.10" duration="110.50" routeLength="995.90" waitingTime="58.40" waitingCount="1" stopTime="0.00" timeLoss="82.08" rerouteNo="0" devices="tripinfo_flow4.1" vType="vtypeauto" speedFactor="0.88" vaporized=""/>
    <tripinfo id="flow4.7" depart="86.80" departLane="end2_junction_0" departPos="4.10" departSpeed="0.00" departDelay="2.80" arrival="130.20" arrivalLane="junction_end4_2" arrivalPos="486.40" arrivalSpeed="35.90" duration="43.40" routeLength="995.90" waitingTime="0.00" waitingCount="0" stopTime="0.00" timeLoss="15.72" rerouteNo="0" devices="tripinfo_flow4.7" vType="vtypeauto" speedFactor="1.01" vaporized=""/>
    <tripinfo id="flow3.7" depart="84.00" departLane="end2_junction_0" departPos="4.10" departSpeed="0.00" departDelay="0.00" arrival="130.50" arrivalLane="junction_end1_0" arrivalPos="486.40" arrivalSpeed="35.91" duration="46.50" routeLength="977.73" waitingTime="0.00" waitingCount="0" stopTime="0.00" timeLoss="18.26" rerouteNo="0" devices="tripinfo_flow3.7" vType="vtypeauto" speedFactor="1.04" vaporized=""/>
    <tripinfo id="flow10.6" depart="74.80" departLane="end4_junction_0" departPos="4.10" departSpeed="0.00" departDelay="2.80" arrival="130.80" arrivalLane="junction_end2_2" arrivalPos="486.40" arrivalSpeed="35.91" duration="56.00" routeLength="995.90" waitingTime="0.00" waitingCount="0" stopTime="0.00" timeLoss="28.24" rerouteNo="0" devices="tripinfo_flow10.6" vType="vtypeauto" speedFactor="1.02" vaporized=""/>
    <tripinfo id="flow9.7" depart="84.00" departLane="end4_junction_0" departPos="4.10" departSpeed="0.00" departDelay="0.00" arrival="131.40" arrivalLane="junction_end3_0" arrivalPos="486.40" arrivalSpeed="35.93" duration="47.40" routeLength="977.73" waitingTime="0.00" waitingCount="0" stopTime="0.00" timeLoss="18.92" rerouteNo="0" devices="tripinfo_flow9.7" vType="vtypeauto" speedFactor="0.92" vaporized=""/>
    <tripinfo id="flow10.7" depart="86.80" departLane="end4_junction_0" departPos="4.10" departSpeed="0.00" departDelay="2.80" arrival="131.90" arrivalLane="junction_end2_2" arrivalPos="486.40" arrivalSpeed="35.88" duration="45.10" routeLength="995.90" waitingTime="0.00" waitingCount="0" stopTime="0.00" timeLoss="17.39" rerouteNo="0" devices="tripinfo_flow10.7" vType="vtypeauto" speedFactor="1.09" vaporized=""/>
    <tripinfo id="flow4.6" depart="74.80" departLane="end2_junction_0" departPos="4.10" departSpeed="0.00" departDelay="2.80" arrival="133.90" arrivalLane="junction_end4_2" arrivalPos="486.40" arrivalSpeed="35.93" duration="59.10" routeLength="995.90" waitingTime="0.00" waitingCount="0" stopTime="0.00" timeLoss="31.44" rerouteNo="0" devices="tripinfo_flow4.6" vType="vtypeauto" speedFactor="1.03" vaporized=""/>
    <tripinfo id="flow0.7" depart="84.00" departLane="end1_junction_0" departPos="4.10" departSpeed="0.00" departDelay="0.00" arrival="135.10" arrivalLane="junction_end4_2" arrivalPos="486.40" arrivalSpeed="35.88" duration="51.10" routeLength="977.73" waitingTime="0.00" waitingCount="0" stopTime="0.00" timeLoss="22.99" rerouteNo="0" devices="tripinfo_flow0.7" vType="vtypeauto" speedFactor="1.15" vaporized=""/>
    <tripinfo id="flow4.2" depart="26.80" departLane="end2_junction_0" departPos="4.10" departSpeed="0.00" departDelay="2.80" arrival="140.80" arrivalLane="junction_end4_0" arrivalPos="486.40" arrivalSpeed="13.91" duration="114.00" routeLength="995.90" waitingTime="43.30" waitingCount="1" stopTime="0.00" timeLoss="63.47" rerouteNo="0" devices="tripinfo_flow4.2" vType="vtypeauto@flow4.2" speedFactor="0.35" vaporized=""/>
    <tripinfo id="flow10.2" depart="26.80" departLane="end4_junction_0" departPos="4.10" departSpeed="0.00" departDelay="2.80" arrival="140.80" arrivalLane="junction_end2_0" arrivalPos="486.40" arrivalSpeed="13.97" duration="114.00" routeLength="995.90" waitingTime="43.30" waitingCount="1" stopTime="0.00" timeLoss="63.46" rerouteNo="0" devices="tripinfo_flow10.2" vType="vtypeauto@flow10.2" speedFactor="0.35" vaporized=""/>
    <tripinfo id="flow3.8" depart="96.00" departLane="end2_junction_0" departPos="4.10" departSpeed="0.00" departDelay="0.00" arrival="141.20" arrivalLane="junction_end1_0" arrivalPos="486.40" arrivalSpeed="35.97" duration="45.20" routeLength="977.73" waitingTime="0.00" waitingCount="0" stopTime="0.00" timeLoss="16.96" rerouteNo="0" devices="tripinfo_flow3.8" vType="vtypeauto" speedFactor="1.10" vaporized=""/>
    <tripinfo id="flow4.3" depart="38.80" departLane="end2_junction_0" departPos="4.10" departSpeed="0.00" departDelay="2.80" arrival="141.40" arrivalLane="junction_end4_1" arrivalPos="486.40" arrivalSpeed="13.88" duration="102.60" routeLength="995.90" waitingTime="31.50" waitingCount="1" stopTime="0.00" timeLoss="51.76" rerouteNo="0" devices="tripinfo_flow4.3" vType="vtypeauto@flow4.3" speedFactor="0.35" vaporized=""/>
    <tripinfo id="flow10.3" depart="38.80" departLane="end4_junction_0" departPos="4.10" departSpeed="0.00" departDelay="2.80" arrival="141.40" arrivalLane="junction_end2_1" arrivalPos="486.40" arrivalSpeed="13.89" duration="102.60" routeLength="995.90" waitingTime="29.60" waitingCount="1" stopTime="0.00" timeLoss="51.75" rerouteNo="0" devices="tripinfo_flow10.3" vType="vtypeauto@flow10.3" speedFactor="0.35" vaporized=""/>
    <tripinfo id="flow9.8" depart="96.00" departLane="end4_junction_0" departPos="4.10" departSpeed="0.00" departDelay="0.00" arrival="141.80" arrivalLane="junction_end3_0" arrivalPos="486.40" arrivalSpeed="35.88" duration="45.80" routeLength="977.73" waitingTime="0.00" waitingCount="0" stopTime="0.00" timeLoss="17.51" rerouteNo="0" devices="tripinfo_flow9.8" vType="vtypeauto" speedFactor="1.07" vaporized=""/>