<?xml version="1.0" encoding="UTF-8"?>

<!-- generated on 2024-10-28 19:41:08 by Eclipse SUMO sumo Version 1.20.0
<configuration xmlns:xsi="http://www.w3.org/2001/XMLSchema-instance" xsi:noNamespaceSchemaLocation="http://sumo.dlr.de/xsd/sumoConfiguration.xsd">

    <input>
        <net-file value="./sim_cfg_3_lanes/4way.net.xml"/>
        <route-files value="./sim_cfg_3_lanes/12x0.16.rou.xml"/>
    </input>

    <output>
        <tripinfo-output value="./sim_cfg_3_lanes/tripinfo_0.242.xml"/>
    </output>

    <time>
        <begin value="0"/>
        <end value="500"/>
        <step-length value="0.1"/>
    </time>

    <traci_server>
        <remote-port value="49408"/>
    </traci_server>

    <gui_only>
        <gui-settings-file value="./sim_cfg_3_lanes/gui_settings.xml"/>
    </gui_only>

</configuration>
-->

<tripinfos xmlns:xsi="http://www.w3.org/2001/XMLSchema-instance" xsi:noNamespaceSchemaLocation="http://sumo.dlr.de/xsd/tripinfo_file.xsd">
    <tripinfo id="flow10.0" depart="2.80" departLane="end4_junction_0" departPos="4.10" departSpeed="0.00" departDelay="2.80" arrival="39.60" arrivalLane="junction_end2_1" arrivalPos="486.40" arrivalSpeed="35.92" duration="36.80" routeLength="995.90" waitingTime="0.00" waitingCount="0" stopTime="0.00" timeLoss="9.12" rerouteNo="0" devices="tripinfo_flow10.0" vType="vtypeauto" speedFactor="1.09" vaporized=""/>
    <tripinfo id="flow4.0" depart="2.80" departLane="end2_junction_0" departPos="4.10" departSpeed="0.00" departDelay="2.80" arrival="39.70" arrivalLane="junction_end4_1" arrivalPos="486.40" arrivalSpeed="35.93" duration="36.90" routeLength="995.90" waitingTime="0.00" waitingCount="0" stopTime="0.00" timeLoss="9.19" rerouteNo="0" devices="tripinfo_flow4.0" vType="vtypeauto" speedFactor="1.03" vaporized=""/>
    <tripinfo id="flow3.0" depart="0.00" departLane="end2_junction_0" departPos="4.10" departSpeed="0.00" departDelay="0.00" arrival="45.20" arrivalLane="junction_end1_0" arrivalPos="486.40" arrivalSpeed="35.90" duration="45.20" routeLength="977.73" waitingTime="0.00" waitingCount="0" stopTime="0.00" timeLoss="17.03" rerouteNo="0" devices="tripinfo_flow3.0" vType="vtypeauto" speedFactor="1.08" vaporized=""/>
    <tripinfo id="flow0.0" depart="0.00" departLane="end1_junction_0" departPos="4.10" departSpeed="0.00" departDelay="0.00" arrival="45.60" arrivalLane="junction_end4_0" arrivalPos="486.40" arrivalSpeed="35.93" duration="45.60" routeLength="977.73" waitingTime="0.00" waitingCount="0" stopTime="0.00" timeLoss="17.32" rerouteNo="0" devices="tripinfo_flow0.0" vType="vtypeauto" speedFactor="1.06" vaporized=""/>
    <tripinfo id="flow6.0" depart="0.00" departLane="end3_junction_0" departPos="4.10" departSpeed="0.00" departDelay="0.00" arrival="45.80" arrivalLane="junction_end2_0" arrivalPos="486.40" arrivalSpeed="35.88" duration="45.80" routeLength="977.73" waitingTime="0.00" waitingCount="0" stopTime="0.00" timeLoss="17.45" rerouteNo="0" devices="tripinfo_flow6.0" vType="vtypeauto" speedFactor="1.05" vaporized=""/>
    <tripinfo id="flow9.0" depart="0.00" departLane="end4_junction_0" departPos="4.10" departSpeed="0.00" departDelay="0.00" arrival="47.10" arrivalLane="junction_end3_0" arrivalPos="486.40" arrivalSpeed="34.19" duration="47.10" routeLength="977.73" waitingTime="0.00" waitingCount="0" stopTime="0.00" timeLoss="17.20" rerouteNo="0" devices="tripinfo_flow9.0" vType="vtypeauto" speedFactor="0.86" vaporized=""/>
    <tripinfo id="flow4.1" depart="8.70" departLane="end2_junction_0" departPos="4.10" departSpeed="0.00" departDelay="2.70" arrival="51.10" arrivalLane="junction_end4_1" arrivalPos="486.40" arrivalSpeed="35.08" duration="42.40" routeLength="995.90" waitingTime="0.00" waitingCount="0" stopTime="0.00" timeLoss="13.99" rerouteNo="0" devices="tripinfo_flow4.1" vType="vtypeauto" speedFactor="0.88" vaporized=""/>
    <tripinfo id="flow9.1" depart="6.00" departLane="end4_junction_0" departPos="4.10" departSpeed="0.00" departDelay="0.00" arrival="51.90" arrivalLane="junction_end3_0" arrivalPos="486.40" arrivalSpeed="35.90" duration="45.90" routeLength="977.73" waitingTime="0.00" waitingCount="0" stopTime="0.00" timeLoss="17.61" rerouteNo="0" devices="tripinfo_flow9.1" vType="vtypeauto" speedFactor="1.01" vaporized=""/>
    <tripinfo id="flow3.1" depart="6.00" departLane="end2_junction_0" departPos="4.10" departSpeed="0.00" departDelay="0.00" arrival="52.10" arrivalLane="junction_end1_0" arrivalPos="486.40" arrivalSpeed="35.88" duration="46.10" routeLength="977.73" waitingTime="0.00" waitingCount="0" stopTime="0.00" timeLoss="17.68" rerouteNo="0" devices="tripinfo_flow3.1" vType="vtypeauto" speedFactor="0.93" vaporized=""/>
    <tripinfo id="flow0.1" depart="6.00" departLane="end1_junction_0" departPos="4.10" departSpeed="0.00" departDelay="0.00" arrival="52.60" arrivalLane="junction_end4_0" arrivalPos="486.40" arrivalSpeed="35.96" duration="46.60" routeLength="977.73" waitingTime="0.00" waitingCount="0" stopTime="0.00" timeLoss="18.38" rerouteNo="0" devices="tripinfo_flow0.1" vType="vtypeauto" speedFactor="1.05" vaporized=""/>
    <tripinfo id="flow10.1" depart="8.80" departLane="end4_junction_0" departPos="4.10" departSpeed="0.00" departDelay="2.80" arrival="52.60" arrivalLane="junction_end2_1" arrivalPos="486.40" arrivalSpeed="35.96" duration="43.80" routeLength="995.90" waitingTime="0.00" waitingCount="0" stopTime="0.00" timeLoss="16.12" rerouteNo="0" devices="tripinfo_flow10.1" vType="vtypeauto" speedFactor="0.97" vaporized=""/>
    <tripinfo id="flow6.1" depart="6.00" departLane="end3_junction_0" departPos="4.10" departSpeed="0.00" departDelay="0.00" arrival="53.10" arrivalLane="junction_end2_0" arrivalPos="486.40" arrivalSpeed="35.88" duration="47.10" routeLength="977.73" waitingTime="0.00" waitingCount="0" stopTime="0.00" timeLoss="18.64" rerouteNo="0" devices="tripinfo_flow6.1" vType="vtypeauto" speedFactor="0.94" vaporized=""/>
    <tripinfo id="flow10.2" depart="14.70" departLane="end4_junction_0" departPos="4.10" departSpeed="0.00" departDelay="2.70" arrival="57.00" arrivalLane="junction_end2_1" arrivalPos="486.40" arrivalSpeed="35.96" duration="42.30" routeLength="995.90" waitingTime="0.00" waitingCount="0" stopTime="0.00" timeLoss="14.55" rerouteNo="0" devices="tripinfo_flow10.2" vType="vtypeauto" speedFactor="0.99" vaporized=""/>
    <tripinfo id="flow4.2" depart="14.80" departLane="end2_junction_0" departPos="4.10" departSpeed="0.00" departDelay="2.80" arrival="57.50" arrivalLane="junction_end4_1" arrivalPos="486.40" arrivalSpeed="35.93" duration="42.70" routeLength="995.90" waitingTime="0.00" waitingCount="0" stopTime="0.00" timeLoss="15.01" rerouteNo="0" devices="tripinfo_flow4.2" vType="vtypeauto" speedFactor="1.13" vaporized=""/>
    <tripinfo id="flow9.2" depart="12.00" departLane="end4_junction_0" departPos="4.10" departSpeed="0.00" departDelay="0.00" arrival="58.40" arrivalLane="junction_end3_0" arrivalPos="486.40" arrivalSpeed="35.96" duration="46.40" routeLength="977.73" waitingTime="0.00" waitingCount="0" stopTime="0.00" timeLoss="18.34" rerouteNo="0" devices="tripinfo_flow9.2" vType="vtypeauto" speedFactor="1.17" vaporized=""/>
    <tripinfo id="flow6.2" depart="12.00" departLane="end3_junction_0" departPos="4.10" departSpeed="0.00" departDelay="0.00" arrival="58.70" arrivalLane="junction_end2_0" arrivalPos="486.40" arrivalSpeed="35.99" duration="46.70" routeLength="977.73" waitingTime="0.00" waitingCount="0" stopTime="0.00" timeLoss="18.66" rerouteNo="0" devices="tripinfo_flow6.2" vType="vtypeauto" speedFactor="1.18" vaporized=""/>
    <tripinfo id="flow3.2" depart="12.00" departLane="end2_junction_0" departPos="4.10" departSpeed="0.00" departDelay="0.00" arrival="58.80" arrivalLane="junction_end1_0" arrivalPos="486.40" arrivalSpeed="35.94" duration="46.80" routeLength="977.73" waitingTime="0.00" waitingCount="0" stopTime="0.00" timeLoss="18.32" rerouteNo="0" devices="tripinfo_flow3.2" vType="vtypeauto" speedFactor="0.95" vaporized=""/>
    <tripinfo id="flow0.2" depart="12.00" departLane="end1_junction_0" departPos="4.10" departSpeed="0.00" departDelay="0.00" arrival="60.90" arrivalLane="junction_end4_0" arrivalPos="486.40" arrivalSpeed="33.02" duration="48.90" routeLength="977.73" waitingTime="0.00" waitingCount="0" stopTime="0.00" timeLoss="17.88" rerouteNo="0" devices="tripinfo_flow0.2" vType="vtypeauto" speedFactor="0.83" vaporized=""/>
    <tripinfo id="flow10.3" depart="20.80" departLane="end4_junction_0" departPos="4.10" departSpeed="0.00" departDelay="2.80" arrival="63.30" arrivalLane="junction_end2_1" arrivalPos="486.40" arrivalSpeed="35.96" duration="42.50" routeLength="995.90" waitingTime="0.00" waitingCount="0" stopTime="0.00" timeLoss="14.79" rerouteNo="0" devices="tripinfo_flow10.3" vType="vtypeauto" speedFactor="1.00" vaporized=""/>
    <tripinfo id="flow4.3" depart="20.80" departLane="end2_junction_0" departPos="4.10" departSpeed="0.00" departDelay="2.80" arrival="63.40" arrivalLane="junction_end4_1" arrivalPos="486.40" arrivalSpeed="35.94" duration="42.60" routeLength="995.90" waitingTime="0.00" waitingCount="0" stopTime="0.00" timeLoss="14.90" rerouteNo="0" devices="tripinfo_flow4.3" vType="vtypeauto" speedFactor="1.03" vaporized=""/>
    <tripinfo id="flow9.3" depart="18.00" departLane="end4_junction_0" departPos="4.10" departSpeed="0.00" departDelay="0.00" arrival="64.10" arrivalLane="junction_end3_0" arrivalPos="486.40" arrivalSpeed="35.97" duration="46.10" routeLength="977.73" waitingTime="0.00" waitingCount="0" stopTime="0.00" timeLoss="17.90" rerouteNo="0" devices="tripinfo_flow9.3" vType="vtypeauto" speedFactor="1.09" vaporized=""/>
    <tripinfo id="flow3.3" depart="18.00" departLane="end2_junction_0" departPos="4.10" departSpeed="0.00" departDelay="0.00" arrival="65.00" arrivalLane="junction_end1_0" arrivalPos="486.40" arrivalSpeed="35.99" duration="47.00" routeLength="977.73" waitingTime="0.00" waitingCount="0" stopTime="0.00" timeLoss="18.53" rerouteNo="0" devices="tripinfo_flow3.3" vType="vtypeauto" speedFactor="0.90" vaporized=""/>
    <tripinfo id="flow6.3" depart="18.00" departLane="end3_junction_0" departPos="4.10" departSpeed="0.00" departDelay="0.00" arrival="65.20" arrivalLane="junction_end2_0" arrivalPos="486.40" arrivalSpeed="35.88" duration="47.20" routeLength="977.73" waitingTime="0.00" waitingCount="0" stopTime="0.00" timeLoss="19.02" rerouteNo="0" devices="tripinfo_flow6.3" vType="vtypeauto" speedFactor="1.09" vaporized=""/>
    <tripinfo id="flow0.3" depart="18.00" departLane="end1_junction_0" departPos="4.10" departSpeed="0.00" departDelay="0.00" arrival="65.70" arrivalLane="junction_end4_0" arrivalPos="486.40" arrivalSpeed="35.89" duration="47.70" routeLength="977.73" waitingTime="0.00" waitingCount="0" stopTime="0.00" timeLoss="19.37" rerouteNo="0" devices="tripinfo_flow0.3" vType="vtypeauto" speedFactor="0.97" vaporized=""/>
    <tripinfo id="flow3.4" depart="24.00" departLane="end2_junction_0" departPos="4.10" departSpeed="0.00" departDelay="0.00" arrival="69.90" arrivalLane="junction_end1_0" arrivalPos="486.40" arrivalSpeed="35.95" duration="45.90" routeLength="977.73" waitingTime="0.00" waitingCount="0" stopTime="0.00" timeLoss="17.79" rerouteNo="0" devices="tripinfo_flow3.4" vType="vtypeauto" speedFactor="1.17" vaporized=""/>
    <tripinfo id="flow4.4" depart="26.80" departLane="end2_junction_0" departPos="4.10" departSpeed="0.00" departDelay="2.80" arrival="69.90" arrivalLane="junction_end4_1" arrivalPos="486.40" arrivalSpeed="35.93" duration="43.10" routeLength="995.90" waitingTime="0.00" waitingCount="0" stopTime="0.00" timeLoss="15.35" rerouteNo="0" devices="tripinfo_flow4.4" vType="vtypeauto" speedFactor="1.02" vaporized=""/>
    <tripinfo id="flow9.4" depart="24.00" departLane="end4_junction_0" departPos="4.10" departSpeed="0.00" departDelay="0.00" arrival="69.90" arrivalLane="junction_end3_0" arrivalPos="486.40" arrivalSpeed="36.00" duration="45.90" routeLength="977.73" waitingTime="0.00" waitingCount="0" stopTime="0.00" timeLoss="17.79" rerouteNo="0" devices="tripinfo_flow9.4" vType="vtypeauto" speedFactor="1.14" vaporized=""/>
    <tripinfo id="flow10.4" depart="26.70" departLane="end4_junction_0" departPos="4.10" departSpeed="0.00" departDelay="2.70" arrival="70.00" arrivalLane="junction_end2_1" arrivalPos="486.40" arrivalSpeed="36.00" duration="43.30" routeLength="995.90" waitingTime="0.00" waitingCount="0" stopTime="0.00" timeLoss="15.62" rerouteNo="0" devices="tripinfo_flow10.4" vType="vtypeauto" speedFactor="1.02" vaporized=""/>
    <tripinfo id="flow6.4" depart="24.00" departLane="end3_junction_0" departPos="4.10" departSpeed="0.00" departDelay="0.00" arrival="72.00" arrivalLane="junction_end2_0" arrivalPos="486.40" arrivalSpeed="35.91" duration="48.00" routeLength="977.73" waitingTime="0.00" waitingCount="0" stopTime="0.00" timeLoss="19.76" rerouteNo="0" devices="tripinfo_flow6.4" vType="vtypeauto" speedFactor="1.00" vaporized=""/>
    <tripinfo id="flow0.4" depart="24.00" departLane="end1_junction_0" departPos="4.10" departSpeed="0.00" departDelay="0.00" arrival="72.80" arrivalLane="junction_end4_0" arrivalPos="486.40" arrivalSpeed="34.97" duration="48.80" routeLength="977.73" waitingTime="0.00" waitingCount="0" stopTime="0.00" timeLoss="19.52" rerouteNo="0" devices="tripinfo_flow0.4" vType="vtypeauto" speedFactor="0.88" vaporized=""/>
    <tripinfo id="flow10.5" depart="32.80" departLane="end4_junction_0" departPos="4.10" departSpeed="0.00" departDelay="2.80" arrival="76.10" arrivalLane="junction_end2_1" arrivalPos="486.40" arrivalSpeed="35.91" duration="43.30" routeLength="995.90" waitingTime="0.00" waitingCount="0" stopTime="0.00" timeLoss="15.55" rerouteNo="0" devices="tripinfo_flow10.5" vType="vtypeauto" speedFactor="1.02" vaporized=""/>
    <tripinfo id="flow3.5" depart="30.00" departLane="end2_junction_0" departPos="4.10" departSpeed="0.00" departDelay="0.00" arrival="76.60" arrivalLane="junction_end1_0" arrivalPos="486.40" arrivalSpeed="35.94" duration="46.60" routeLength="977.73" waitingTime="0.00" waitingCount="0" stopTime="0.00" timeLoss="18.24" rerouteNo="0" devices="tripinfo_flow3.5" vType="vtypeauto" speedFactor="0.99" vaporized=""/>
    <tripinfo id="flow9.5" depart="30.00" departLane="end4_junction_0" departPos="4.10" departSpeed="0.00" departDelay="0.00" arrival="76.60" arrivalLane="junction_end3_0" arrivalPos="486.40" arrivalSpeed="35.89" duration="46.60" routeLength="977.73" waitingTime="0.00" waitingCount="0" stopTime="0.00" timeLoss="18.34" rerouteNo="0" devices="tripinfo_flow9.5" vType="vtypeauto" speedFactor="1.02" vaporized=""/>
    <tripinfo id="flow0.5" depart="30.00" departLane="end1_junction_0" departPos="4.10" departSpeed="0.00" departDelay="0.00" arrival="77.80" arrivalLane="junction_end4_0" arrivalPos="486.40" arrivalSpeed="35.97" duration="47.80" routeLength="977.73" waitingTime="0.00" waitingCount="0" stopTime="0.00" timeLoss="19.62" rerouteNo="0" devices="tripinfo_flow0.5" vType="vtypeauto" speedFactor="1.08" vaporized=""/>
    <tripinfo id="flow4.5" depart="32.80" departLane="end2_junction_0" departPos="4.10" departSpeed="0.00" departDelay="2.80" arrival="78.10" arrivalLane="junction_end4_1" arrivalPos="486.40" arrivalSpeed="35.88" duration="45.30" routeLength="995.90" waitingTime="0.00" waitingCount="0" stopTime="0.00" timeLoss="17.62" rerouteNo="0" devices="tripinfo_flow4.5" vType="vtypeauto" speedFactor="0.94" vaporized=""/>
    <tripinfo id="flow6.5" depart="30.00" departLane="end3_junction_0" departPos="4.10" departSpeed="0.00" departDelay="0.00" arrival="78.60" arrivalLane="junction_end2_0" arrivalPos="486.40" arrivalSpeed="35.95" duration="48.60" routeLength="977.73" waitingTime="0.00" waitingCount="0" stopTime="0.00" timeLoss="20.15" rerouteNo="0" devices="tripinfo_flow6.5" vType="vtypeauto" speedFactor="0.91" vaporized=""/>
    <tripinfo id="flow10.6" depart="38.70" departLane="end4_junction_0" departPos="4.10" departSpeed="0.00" departDelay="2.70" arrival="82.10" arrivalLane="junction_end2_1" arrivalPos="486.40" arrivalSpeed="35.97" duration="43.40" routeLength="995.90" waitingTime="0.00" waitingCount="0" stopTime="0.00" timeLoss="15.74" rerouteNo="0" devices="tripinfo_flow10.6" vType="vtypeauto" speedFactor="1.02" vaporized=""/>
    <tripinfo id="flow4.6" depart="38.80" departLane="end2_junction_0" departPos="4.10" departSpeed="0.00" departDelay="2.80" arrival="82.50" arrivalLane="junction_end4_1" arrivalPos="486.40" arrivalSpeed="35.92" duration="43.70" routeLength="995.90" waitingTime="0.00" waitingCount="0" stopTime="0.00" timeLoss="15.97" rerouteNo="0" devices="tripinfo_flow4.6" vType="vtypeauto" speedFactor="1.03" vaporized=""/>
    <tripinfo id="flow9.6" depart="36.00" departLane="end4_junction_0" departPos="4.10" departSpeed="0.00" departDelay="0.00" arrival="82.90" arrivalLane="junction_end3_0" arrivalPos="486.40" arrivalSpeed="35.98" duration="46.90" routeLength="977.73" waitingTime="0.00" waitingCount="0" stopTime="0.00" timeLoss="18.57" rerouteNo="0" devices="tripinfo_flow9.6" vType="vtypeauto" speedFactor="1.00" vaporized=""/>
    <tripinfo id="flow3.6" depart="36.00" departLane="end2_junction_0" departPos="4.10" departSpeed="0.00" departDelay="0.00" arrival="84.20" arrivalLane="junction_end1_0" arrivalPos="486.40" arrivalSpeed="35.94" duration="48.20" routeLength="977.73" waitingTime="0.00" waitingCount="0" stopTime="0.00" timeLoss="19.87" rerouteNo="0" devices="tripinfo_flow3.6" vType="vtypeauto" speedFactor="0.98" vaporized=""/>
    <tripinfo id="flow0.6" depart="36.00" departLane="end1_junction_0" departPos="4.10" departSpeed="0.00" departDelay="0.00" arrival="84.40" arrivalLane="junction_end4_0" arrivalPos="486.40" arrivalSpeed="35.93" duration="48.40" routeLength="977.73" waitingTime="0.00" waitingCount="0" stopTime="0.00" timeLoss="20.07" rerouteNo="0" devices="tripinfo_flow0.6" vType="vtypeauto" speedFactor="0.94" vaporized=""/>
    <tripinfo id="flow6.6" depart="36.00" departLane="end3_junction_0" departPos="4.10" departSpeed="0.00" departDelay="0.00" arrival="84.50" arrivalLane="junction_end2_0" arrivalPos="486.40" arrivalSpeed="35.94" duration="48.50" routeLength="977.73" waitingTime="0.00" waitingCount="0" stopTime="0.00" timeLoss="20.25" rerouteNo="0" devices="tripinfo_flow6.6" vType="vtypeauto" speedFactor="1.01" vaporized=""/>
    <tripinfo id="flow3.7" depart="42.00" departLane="end2_junction_0" departPos="4.10" departSpeed="0.00" departDelay="0.00" arrival="89.00" arrivalLane="junction_end1_0" arrivalPos="486.40" arrivalSpeed="35.94" duration="47.00" routeLength="977.73" waitingTime="0.00" waitingCount="0" stopTime="0.00" timeLoss="18.75" rerouteNo="0" devices="tripinfo_flow3.7" vType="vtypeauto" speedFactor="1.04" vaporized=""/>
    <tripinfo id="flow9.7" depart="42.00" departLane="end4_junction_0" departPos="4.10" departSpeed="0.00" departDelay="0.00" arrival="89.80" arrivalLane="junction_end3_0" arrivalPos="486.40" arrivalSpeed="35.90" duration="47.80" routeLength="977.73" waitingTime="0.00" waitingCount="0" stopTime="0.00" timeLoss="19.35" rerouteNo="0" devices="tripinfo_flow9.7" vType="vtypeauto" speedFactor="0.92" vaporized=""/>
    <tripinfo id="flow0.7" depart="42.00" departLane="end1_junction_0" departPos="4.10" departSpeed="0.00" departDelay="0.00" arrival="90.30" arrivalLane="junction_end4_0" arrivalPos="486.40" arrivalSpeed="35.96" duration="48.30" routeLength="977.73" waitingTime="0.00" waitingCount="0" stopTime="0.00" timeLoss="20.19" rerouteNo="0" devices="tripinfo_flow0.7" vType="vtypeauto" speedFactor="1.15" vaporized=""/>
    <tripinfo id="flow6.7" depart="42.00" departLane="end3_junction_0" departPos="4.10" departSpeed="0.00" departDelay="0.00" arrival="90.80" arrivalLane="junction_end2_0" arrivalPos="486.40" arrivalSpeed="35.90" duration="48.80" routeLength="977.73" waitingTime="0.00" waitingCount="0" stopTime="0.00" timeLoss="20.44" rerouteNo="0" devices="tripinfo_flow6.7" vType="vtypeauto" speedFactor="1.02" vaporized=""/>
    <tripinfo id="flow11.0" depart="2.90" departLane="end4_junction_0" departPos="4.10" departSpeed="0.00" departDelay="2.90" arrival="93.70" arrivalLane="junction_end1_2" arrivalPos="486.40" arrivalSpeed="35.91" duration="90.80" routeLength="993.21" waitingTime="40.00" waitingCount="1" stopTime="0.00" timeLoss="61.56" rerouteNo="0" devices="tripinfo_flow11.0" vType="vtypeauto" speedFactor="1.03" vaporized=""/>
    <tripinfo id="flow5.0" depart="2.90" departLane="end2_junction_0" departPos="4.10" departSpeed="0.00" departDelay="2.90" arrival="94.50" arrivalLane="junction_end3_2" arrivalPos="486.40" arrivalSpeed="33.12" duration="91.60" routeLength="993.21" waitingTime="39.50" waitingCount="1" stopTime="0.00" timeLoss="59.58" rerouteNo="0" devices="tripinfo_flow5.0" vType="vtypeauto" speedFactor="0.83" vaporized=""/>
    <tripinfo id="flow3.8" depart="48.00" departLane="end2_junction_0" departPos="4.10" departSpeed="0.00" departDelay="0.00" arrival="95.30" arrivalLane="junction_end1_0" arrivalPos="486.40" arrivalSpeed="35.88" duration="47.30" routeLength="977.73" waitingTime="0.00" waitingCount="0" stopTime="0.00" timeLoss="19.04" rerouteNo="0" devices="tripinfo_flow3.8" vType="vtypeauto" speedFactor="1.10" vaporized=""/>
    <tripinfo id="flow5.1" depart="8.80" departLane="end2_junction_0" departPos="4.10" departSpeed="0.00" departDelay="2.80" arrival="95.70" arrivalLane="junction_end3_2" arrivalPos="486.40" arrivalSpeed="35.52" duration="86.90" routeLength="993.21" waitingTime="29.70" waitingCount="1" stopTime="0.00" timeLoss="57.46" rerouteNo="0" devices="tripinfo_flow5.1" vType="vtypeauto" speedFactor="0.94" vaporized=""/>
    <tripinfo id="flow11.1" depart="8.90" departLane="end4_junction_0" departPos="4.10" departSpeed="0.00" departDelay="2.90" arrival="95.70" arrivalLane="junction_end1_2" arrivalPos="486.40" arrivalSpeed="35.50" duration="86.80" routeLength="993.21" waitingTime="32.30" waitingCount="1" stopTime="0.00" timeLoss="56.90" rerouteNo="0" devices="tripinfo_flow11.1" vType="vtypeauto" speedFactor="0.89" vaporized=""/>
    <tripinfo id="flow11.2" depart="14.80" departLane="end4_junction_0" departPos="4.10" departSpeed="0.00" departDelay="2.80" arrival="96.80" arrivalLane="junction_end1_2" arrivalPos="486.40" arrivalSpeed="35.95" duration="82.00" routeLength="993.21" waitingTime="24.50" waitingCount="1" stopTime="0.00" timeLoss="52.73" rerouteNo="0" devices="tripinfo_flow11.2" vType="vtypeauto" speedFactor="1.02" vaporized=""/>
    <tripinfo id="flow5.2" depart="14.90" departLane="end2_junction_0" departPos="4.10" departSpeed="0.00" departDelay="2.90" arrival="97.00" arrivalLane="junction_end3_2" arrivalPos="486.40" arrivalSpeed="35.90" duration="82.10" routeLength="993.21" waitingTime="24.10" waitingCount="1" stopTime="0.00" timeLoss="52.64" rerouteNo="0" devices="tripinfo_flow5.2" vType="vtypeauto" speedFactor="0.93" vaporized=""/>
    <tripinfo id="flow0.8" depart="48.00" departLane="end1_junction_0" departPos="4.10" departSpeed="0.00" departDelay="0.00" arrival="97.00" arrivalLane="junction_end4_0" arrivalPos="486.40" arrivalSpeed="35.95" duration="49.00" routeLength="977.73" waitingTime="0.00" waitingCount="0" stopTime="0.00" timeLoss="20.67" rerouteNo="0" devices="tripinfo_flow0.8" vType="vtypeauto" speedFactor="1.01" vaporized=""/>
    <tripinfo id="flow9.8" depart="48.00" departLane="end4_junction_0" departPos="4.10" departSpeed="0.00" departDelay="0.00" arrival="97.10" arrivalLane="junction_end3_0" arrivalPos="486.40" arrivalSpeed="35.98" duration="49.10" routeLength="977.73" waitingTime="0.00" waitingCount="0" stopTime="0.00" timeLoss="20.87" rerouteNo="0" devices="tripinfo_flow9.8" vType="vtypeauto" speedFactor="1.07" vaporized=""/>
    <tripinfo id="flow6.8" depart="48.00" departLane="end3_junction_0" departPos="4.10" departSpeed="0.00" departDelay="0.00" arrival="97.80" arrivalLane="junction_end2_0" arrivalPos="486.40" arrivalSpeed="35.93" duration="49.80" routeLength="977.73" waitingTime="0.00" waitingCount="0" stopTime="0.00" timeLoss="21.36" rerouteNo="0" devices="tripinfo_flow6.8" vType="vtypeauto" speedFactor="0.97" vaporized=""/>
    <tripinfo id="flow5.3" depart="20.90" departLane="end2_junction_0" departPos="4.10" departSpeed="0.00" departDelay="2.90" arrival="98.50" arrivalLane="junction_end3_2" arrivalPos="486.40" arrivalSpeed="35.93" duration="77.60" routeLength="993.21" waitingTime="18.90" waitingCount="1" stopTime="0.00" timeLoss="48.22" rerouteNo="0" devices="tripinfo_flow5.3" vType="vtypeauto" speedFactor="0.96" vaporized=""/>
    <tripinfo id="flow11.3" depart="20.90" departLane="end4_junction_0" departPos="4.10" departSpeed="0.00" departDelay="2.90" arrival="98.90" arrivalLane="junction_end1_2" arrivalPos="486.40" arrivalSpeed="35.90" duration="78.00" routeLength="993.21" waitingTime="19.00" waitingCount="1" stopTime="0.00" timeLoss="48.47" rerouteNo="0" devices="tripinfo_flow11.3" vType="vtypeauto" speedFactor="0.90" vaporized=""/>
    <tripinfo id="flow5.4" depart="26.90" departLane="end2_junction_0" departPos="4.10" departSpeed="0.00" departDelay="2.90" arrival="99.70" arrivalLane="junction_end3_2" arrivalPos="486.40" arrivalSpeed="35.94" duration="72.80" routeLength="993.21" waitingTime="13.60" waitingCount="1" stopTime="0.00" timeLoss="43.74" rerouteNo="0" devices="tripinfo_flow5.4" vType="vtypeauto" speedFactor="1.10" vaporized=""/>
    <tripinfo id="flow11.4" depart="26.80" departLane="end4_junction_0" departPos="4.10" departSpeed="0.00" departDelay="2.80" arrival="100.30" arrivalLane="junction_end1_2" arrivalPos="486.40" arrivalSpeed="35.92" duration="73.50" routeLength="993.21" waitingTime="13.50" waitingCount="1" stopTime="0.00" timeLoss="44.12" rerouteNo="0" devices="tripinfo_flow11.4" vType="vtypeauto" speedFactor="0.97" vaporized=""/>
    <tripinfo id="flow11.5" depart="32.90" departLane="end4_junction_0" departPos="4.10" departSpeed="0.00" departDelay="2.90" arrival="102.00" arrivalLane="junction_end1_2" arrivalPos="486.40" arrivalSpeed="35.96" duration="69.10" routeLength="993.21" waitingTime="8.70" waitingCount="1" stopTime="0.00" timeLoss="39.76" rerouteNo="0" devices="tripinfo_flow11.5" vType="vtypeauto" speedFactor="0.97" vaporized=""/>
    <tripinfo id="flow9.9" depart="54.00" departLane="end4_junction_0" departPos="4.10" departSpeed="0.00" departDelay="0.00" arrival="102.20" arrivalLane="junction_end3_0" arrivalPos="486.40" arrivalSpeed="35.89" duration="48.20" routeLength="977.73" waitingTime="0.00" waitingCount="0" stopTime="0.00" timeLoss="19.86" rerouteNo="0" devices="tripinfo_flow9.9" vType="vtypeauto" speedFactor="1.00" vaporized=""/>
    <tripinfo id="flow5.5" depart="32.90" departLane="end2_junction_0" departPos="4.10" departSpeed="0.00" departDelay="2.90" arrival="102.60" arrivalLane="junction_end3_2" arrivalPos="486.40" arrivalSpeed="35.28" duration="69.70" routeLength="993.21" waitingTime="10.70" waitingCount="1" stopTime="0.00" timeLoss="39.48" rerouteNo="0" devices="tripinfo_flow5.5" vType="vtypeauto" speedFactor="0.88" vaporized=""/>
    <tripinfo id="flow0.9" depart="54.00" departLane="end1_junction_0" departPos="4.10" departSpeed="0.00" departDelay="0.00" arrival="103.00" arrivalLane="junction_end4_0" arrivalPos="486.40" arrivalSpeed="35.98" duration="49.00" routeLength="977.73" waitingTime="0.00" waitingCount="0" stopTime="0.00" timeLoss="20.75" rerouteNo="0" devices="tripinfo_flow0.9" vType="vtypeauto" speedFactor="1.06" vaporized=""/>
    <tripinfo id="flow3.9" depart="54.00" departLane="end2_junction_0" departPos="4.10" departSpeed="0.00" departDelay="0.00" arrival="103.00" arrivalLane="junction_end1_0" arrivalPos="486.40" arrivalSpeed="34.55" duration="49.00" routeLength="977.73" waitingTime="0.00" waitingCount="0" stopTime="0.00" timeLoss="19.36" rerouteNo="0" devices="tripinfo_flow3.9" vType="vtypeauto" speedFactor="0.87" vaporized=""/>
    <tripinfo id="flow6.9" depart="54.00" departLane="end3_junction_0" departPos="4.10" departSpeed="0.00" departDelay="0.00" arrival="103.00" arrivalLane="junction_end2_0" arrivalPos="486.40" arrivalSpeed="35.88" duration="49.00" routeLength="977.73" waitingTime="0.00" waitingCount="0" stopTime="0.00" timeLoss="20.82" rerouteNo="0" devices="tripinfo_flow6.9" vType="vtypeauto" speedFactor="1.10" vaporized=""/>
    <tripinfo id="flow5.6" depart="38.90" departLane="end2_junction_0" departPos="4.10" departSpeed="0.00" departDelay="2.90" arrival="103.80" arrivalLane="junction_end3_2" arrivalPos="486.40" arrivalSpeed="35.91" duration="64.90" routeLength="993.21" waitingTime="3.00" waitingCount="1" stopTime="0.00" timeLoss="35.58" rerouteNo="0" devices="tripinfo_flow5.6" vType="vtypeauto" speedFactor="0.98" vaporized=""/>
    <tripinfo id="flow11.6" depart="38.80" departLane="end4_junction_0" departPos="4.10" departSpeed="0.00" departDelay="2.80" arrival="103.80" arrivalLane="junction_end1_2" arrivalPos="486.40" arrivalSpeed="35.96" duration="65.00" routeLength="993.21" waitingTime="3.30" waitingCount="1" stopTime="0.00" timeLoss="35.56" rerouteNo="0" devices="tripinfo_flow11.6" vType="vtypeauto" speedFactor="0.97" vaporized=""/>
    <tripinfo id="flow11.7" depart="44.90" departLane="end4_junction_0" departPos="4.10" departSpeed="0.00" departDelay="2.90" arrival="105.20" arrivalLane="junction_end1_2" arrivalPos="486.40" arrivalSpeed="35.96" duration="60.30" routeLength="993.21" waitingTime="0.00" waitingCount="0" stopTime="0.00" timeLoss="31.10" rerouteNo="0" devices="tripinfo_flow11.7" vType="vtypeauto" speedFactor="1.06" vaporized=""/>
    <tripinfo id="flow5.7" depart="44.90" departLane="end2_junction_0" departPos="4.10" departSpeed="0.00" departDelay="2.90" arrival="105.60" arrivalLane="junction_end3_2" arrivalPos="486.40" arrivalSpeed="35.98" duration="60.70" routeLength="993.21" waitingTime="0.00" waitingCount="0" stopTime="0.00" timeLoss="31.41" rerouteNo="0" devices="tripinfo_flow5.7" vType="vtypeauto" speedFactor="1.02" vaporized=""/>