<?xml version="1.0" encoding="UTF-8"?>

<!-- generated on 2024-11-21 17:14:02 by Eclipse SUMO sumo Version 1.20.0
<configuration xmlns:xsi="http://www.w3.org/2001/XMLSchema-instance" xsi:noNamespaceSchemaLocation="http://sumo.dlr.de/xsd/sumoConfiguration.xsd">

    <input>
        <net-file value="sim_cfg_3_lanes/4way.net.xml"/>
        <route-files value="sim_cfg_3_lanes/12x1.rou.xml"/>
    </input>

    <output>
        <tripinfo-output value="sim_cfg_3_lanes/tripinfo_1.452.xml"/>
    </output>

    <time>
        <begin value="0"/>
        <end value="500"/>
        <step-length value="0.1"/>
    </time>

    <traci_server>
        <remote-port value="49700"/>
    </traci_server>

    <gui_only>
        <gui-settings-file value="sim_cfg_3_lanes/gui_settings.xml"/>
    </gui_only>

</configuration>
-->

<tripinfos xmlns:xsi="http://www.w3.org/2001/XMLSchema-instance" xsi:noNamespaceSchemaLocation="http://sumo.dlr.de/xsd/tripinfo_file.xsd">
    <tripinfo id="flow10.0" depart="2.80" departLane="end4_junction_0" departPos="4.10" departSpeed="0.00" departDelay="2.80" arrival="39.60" arrivalLane="junction_end2_1" arrivalPos="486.40" arrivalSpeed="35.94" duration="36.80" routeLength="995.90" waitingTime="0.00" waitingCount="0" stopTime="0.00" timeLoss="9.11" rerouteNo="0" devices="tripinfo_flow10.0" vType="vtypeauto" speedFactor="1.09" vaporized=""/>
    <tripinfo id="flow4.0" depart="2.80" departLane="end2_junction_0" departPos="4.10" departSpeed="0.00" departDelay="2.80" arrival="39.70" arrivalLane="junction_end4_1" arrivalPos="486.40" arrivalSpeed="35.91" duration="36.90" routeLength="995.90" waitingTime="0.00" waitingCount="0" stopTime="0.00" timeLoss="9.19" rerouteNo="0" devices="tripinfo_flow4.0" vType="vtypeauto" speedFactor="1.03" vaporized=""/>
    <tripinfo id="flow3.0" depart="0.00" departLane="end2_junction_0" departPos="4.10" departSpeed="0.00" departDelay="0.00" arrival="45.20" arrivalLane="junction_end1_0" arrivalPos="486.40" arrivalSpeed="35.90" duration="45.20" routeLength="977.73" waitingTime="0.00" waitingCount="0" stopTime="0.00" timeLoss="16.95" rerouteNo="0" devices="tripinfo_flow3.0" vType="vtypeauto" speedFactor="1.08" vaporized=""/>
    <tripinfo id="flow0.0" depart="0.00" departLane="end1_junction_0" departPos="4.10" departSpeed="0.00" departDelay="0.00" arrival="45.70" arrivalLane="junction_end4_0" arrivalPos="486.40" arrivalSpeed="35.95" duration="45.70" routeLength="977.73" waitingTime="0.00" waitingCount="0" stopTime="0.00" timeLoss="17.40" rerouteNo="0" devices="tripinfo_flow0.0" vType="vtypeauto" speedFactor="1.06" vaporized=""/>
    <tripinfo id="flow6.0" depart="0.00" departLane="end3_junction_0" departPos="4.10" departSpeed="0.00" departDelay="0.00" arrival="45.80" arrivalLane="junction_end2_0" arrivalPos="486.40" arrivalSpeed="35.97" duration="45.80" routeLength="977.73" waitingTime="0.00" waitingCount="0" stopTime="0.00" timeLoss="17.55" rerouteNo="0" devices="tripinfo_flow6.0" vType="vtypeauto" speedFactor="1.05" vaporized=""/>
    <tripinfo id="flow9.0" depart="0.00" departLane="end4_junction_0" departPos="4.10" departSpeed="0.00" departDelay="0.00" arrival="47.10" arrivalLane="junction_end3_0" arrivalPos="486.40" arrivalSpeed="34.20" duration="47.10" routeLength="977.73" waitingTime="0.00" waitingCount="0" stopTime="0.00" timeLoss="17.19" rerouteNo="0" devices="tripinfo_flow9.0" vType="vtypeauto" speedFactor="0.86" vaporized=""/>
    <tripinfo id="flow10.1" depart="8.50" departLane="end4_junction_0" departPos="4.10" departSpeed="0.00" departDelay="7.50" arrival="50.20" arrivalLane="junction_end2_1" arrivalPos="486.40" arrivalSpeed="35.99" duration="41.70" routeLength="995.90" waitingTime="0.00" waitingCount="0" stopTime="0.00" timeLoss="14.03" rerouteNo="0" devices="tripinfo_flow10.1" vType="vtypeauto" speedFactor="0.97" vaporized=""/>
    <tripinfo id="flow4.1" depart="8.40" departLane="end2_junction_0" departPos="4.10" departSpeed="0.00" departDelay="7.40" arrival="50.80" arrivalLane="junction_end4_1" arrivalPos="486.40" arrivalSpeed="35.08" duration="42.40" routeLength="995.90" waitingTime="0.00" waitingCount="0" stopTime="0.00" timeLoss="14.03" rerouteNo="0" devices="tripinfo_flow4.1" vType="vtypeauto" speedFactor="0.88" vaporized=""/>
    <tripinfo id="flow9.1" depart="5.70" departLane="end4_junction_0" departPos="4.10" departSpeed="0.00" departDelay="4.70" arrival="51.50" arrivalLane="junction_end3_0" arrivalPos="486.40" arrivalSpeed="35.92" duration="45.80" routeLength="977.73" waitingTime="0.00" waitingCount="0" stopTime="0.00" timeLoss="17.58" rerouteNo="0" devices="tripinfo_flow9.1" vType="vtypeauto" speedFactor="1.01" vaporized=""/>
    <tripinfo id="flow3.1" depart="5.70" departLane="end2_junction_0" departPos="4.10" departSpeed="0.00" departDelay="4.70" arrival="51.90" arrivalLane="junction_end1_0" arrivalPos="486.40" arrivalSpeed="36.00" duration="46.20" routeLength="977.73" waitingTime="0.00" waitingCount="0" stopTime="0.00" timeLoss="17.74" rerouteNo="0" devices="tripinfo_flow3.1" vType="vtypeauto" speedFactor="0.93" vaporized=""/>
    <tripinfo id="flow0.1" depart="5.70" departLane="end1_junction_0" departPos="4.10" departSpeed="0.00" departDelay="4.70" arrival="52.30" arrivalLane="junction_end4_0" arrivalPos="486.40" arrivalSpeed="35.90" duration="46.60" routeLength="977.73" waitingTime="0.00" waitingCount="0" stopTime="0.00" timeLoss="18.38" rerouteNo="0" devices="tripinfo_flow0.1" vType="vtypeauto" speedFactor="1.05" vaporized=""/>
    <tripinfo id="flow6.1" depart="5.70" departLane="end3_junction_0" departPos="4.10" departSpeed="0.00" departDelay="4.70" arrival="52.80" arrivalLane="junction_end2_0" arrivalPos="486.40" arrivalSpeed="35.93" duration="47.10" routeLength="977.73" waitingTime="0.00" waitingCount="0" stopTime="0.00" timeLoss="18.71" rerouteNo="0" devices="tripinfo_flow6.1" vType="vtypeauto" speedFactor="0.94" vaporized=""/>
    <tripinfo id="flow10.2" depart="14.00" departLane="end4_junction_0" departPos="4.10" departSpeed="0.00" departDelay="12.00" arrival="56.40" arrivalLane="junction_end2_1" arrivalPos="486.40" arrivalSpeed="35.89" duration="42.40" routeLength="995.90" waitingTime="0.00" waitingCount="0" stopTime="0.00" timeLoss="14.73" rerouteNo="0" devices="tripinfo_flow10.2" vType="vtypeauto" speedFactor="0.99" vaporized=""/>
    <tripinfo id="flow9.2" depart="11.30" departLane="end4_junction_0" departPos="4.10" departSpeed="0.00" departDelay="9.30" arrival="56.90" arrivalLane="junction_end3_0" arrivalPos="486.40" arrivalSpeed="35.92" duration="45.60" routeLength="977.73" waitingTime="0.00" waitingCount="0" stopTime="0.00" timeLoss="17.46" rerouteNo="0" devices="tripinfo_flow9.2" vType="vtypeauto" speedFactor="1.17" vaporized=""/>
    <tripinfo id="flow6.2" depart="11.40" departLane="end3_junction_0" departPos="4.10" departSpeed="0.00" departDelay="9.40" arrival="57.90" arrivalLane="junction_end2_0" arrivalPos="486.40" arrivalSpeed="35.95" duration="46.50" routeLength="977.73" waitingTime="0.00" waitingCount="0" stopTime="0.00" timeLoss="18.39" rerouteNo="0" devices="tripinfo_flow6.2" vType="vtypeauto" speedFactor="1.18" vaporized=""/>
    <tripinfo id="flow3.2" depart="11.30" departLane="end2_junction_0" departPos="4.10" departSpeed="0.00" departDelay="9.30" arrival="58.30" arrivalLane="junction_end1_0" arrivalPos="486.40" arrivalSpeed="35.93" duration="47.00" routeLength="977.73" waitingTime="0.00" waitingCount="0" stopTime="0.00" timeLoss="18.54" rerouteNo="0" devices="tripinfo_flow3.2" vType="vtypeauto" speedFactor="0.95" vaporized=""/>
    <tripinfo id="flow4.2" depart="14.00" departLane="end2_junction_0" departPos="4.10" departSpeed="0.00" departDelay="12.00" arrival="59.10" arrivalLane="junction_end4_1" arrivalPos="486.40" arrivalSpeed="35.95" duration="45.10" routeLength="995.90" waitingTime="0.00" waitingCount="0" stopTime="0.00" timeLoss="17.44" rerouteNo="0" devices="tripinfo_flow4.2" vType="vtypeauto" speedFactor="1.13" vaporized=""/>
    <tripinfo id="flow0.2" depart="11.40" departLane="end1_junction_0" departPos="4.10" departSpeed="0.00" departDelay="9.40" arrival="60.30" arrivalLane="junction_end4_0" arrivalPos="486.40" arrivalSpeed="33.01" duration="48.90" routeLength="977.73" waitingTime="0.00" waitingCount="0" stopTime="0.00" timeLoss="17.88" rerouteNo="0" devices="tripinfo_flow0.2" vType="vtypeauto" speedFactor="0.83" vaporized=""/>
    <tripinfo id="flow4.3" depart="19.70" departLane="end2_junction_0" departPos="4.10" departSpeed="0.00" departDelay="16.70" arrival="62.40" arrivalLane="junction_end4_1" arrivalPos="486.40" arrivalSpeed="35.88" duration="42.70" routeLength="995.90" waitingTime="0.00" waitingCount="0" stopTime="0.00" timeLoss="15.04" rerouteNo="0" devices="tripinfo_flow4.3" vType="vtypeauto" speedFactor="1.03" vaporized=""/>
    <tripinfo id="flow10.3" depart="19.70" departLane="end4_junction_0" departPos="4.10" departSpeed="0.00" departDelay="16.70" arrival="62.70" arrivalLane="junction_end2_1" arrivalPos="486.40" arrivalSpeed="35.88" duration="43.00" routeLength="995.90" waitingTime="0.00" waitingCount="0" stopTime="0.00" timeLoss="15.27" rerouteNo="0" devices="tripinfo_flow10.3" vType="vtypeauto" speedFactor="1.00" vaporized=""/>
    <tripinfo id="flow9.3" depart="16.90" departLane="end4_junction_0" departPos="4.10" departSpeed="0.00" departDelay="13.90" arrival="63.20" arrivalLane="junction_end3_0" arrivalPos="486.40" arrivalSpeed="35.94" duration="46.30" routeLength="977.73" waitingTime="0.00" waitingCount="0" stopTime="0.00" timeLoss="18.05" rerouteNo="0" devices="tripinfo_flow9.3" vType="vtypeauto" speedFactor="1.09" vaporized=""/>
    <tripinfo id="flow6.3" depart="17.00" departLane="end3_junction_0" departPos="4.10" departSpeed="0.00" departDelay="14.00" arrival="64.20" arrivalLane="junction_end2_0" arrivalPos="486.40" arrivalSpeed="35.93" duration="47.20" routeLength="977.73" waitingTime="0.00" waitingCount="0" stopTime="0.00" timeLoss="19.09" rerouteNo="0" devices="tripinfo_flow6.3" vType="vtypeauto" speedFactor="1.09" vaporized=""/>
    <tripinfo id="flow0.3" depart="17.10" departLane="end1_junction_0" departPos="4.10" departSpeed="0.00" departDelay="14.10" arrival="64.90" arrivalLane="junction_end4_0" arrivalPos="486.40" arrivalSpeed="35.89" duration="47.80" routeLength="977.73" waitingTime="0.00" waitingCount="0" stopTime="0.00" timeLoss="19.49" rerouteNo="0" devices="tripinfo_flow0.3" vType="vtypeauto" speedFactor="0.97" vaporized=""/>
    <tripinfo id="flow3.3" depart="16.90" departLane="end2_junction_0" departPos="4.10" departSpeed="0.00" departDelay="13.90" arrival="65.90" arrivalLane="junction_end1_0" arrivalPos="486.40" arrivalSpeed="35.92" duration="49.00" routeLength="977.73" waitingTime="0.00" waitingCount="0" stopTime="0.00" timeLoss="20.45" rerouteNo="0" devices="tripinfo_flow3.3" vType="vtypeauto" speedFactor="0.90" vaporized=""/>
    <tripinfo id="flow4.4" depart="25.40" departLane="end2_junction_0" departPos="4.10" departSpeed="0.00" departDelay="21.40" arrival="68.50" arrivalLane="junction_end4_1" arrivalPos="486.40" arrivalSpeed="35.95" duration="43.10" routeLength="995.90" waitingTime="0.00" waitingCount="0" stopTime="0.00" timeLoss="15.38" rerouteNo="0" devices="tripinfo_flow4.4" vType="vtypeauto" speedFactor="1.02" vaporized=""/>
    <tripinfo id="flow10.4" depart="25.30" departLane="end4_junction_0" departPos="4.10" departSpeed="0.00" departDelay="21.30" arrival="68.50" arrivalLane="junction_end2_1" arrivalPos="486.40" arrivalSpeed="35.88" duration="43.20" routeLength="995.90" waitingTime="0.00" waitingCount="0" stopTime="0.00" timeLoss="15.53" rerouteNo="0" devices="tripinfo_flow10.4" vType="vtypeauto" speedFactor="1.02" vaporized=""/>
    <tripinfo id="flow3.4" depart="22.60" departLane="end2_junction_0" departPos="4.10" departSpeed="0.00" departDelay="18.60" arrival="68.80" arrivalLane="junction_end1_0" arrivalPos="486.40" arrivalSpeed="35.90" duration="46.20" routeLength="977.73" waitingTime="0.00" waitingCount="0" stopTime="0.00" timeLoss="18.14" rerouteNo="0" devices="tripinfo_flow3.4" vType="vtypeauto" speedFactor="1.17" vaporized=""/>
    <tripinfo id="flow9.4" depart="22.60" departLane="end4_junction_0" departPos="4.10" departSpeed="0.00" departDelay="18.60" arrival="68.80" arrivalLane="junction_end3_0" arrivalPos="486.40" arrivalSpeed="35.91" duration="46.20" routeLength="977.73" waitingTime="0.00" waitingCount="0" stopTime="0.00" timeLoss="18.09" rerouteNo="0" devices="tripinfo_flow9.4" vType="vtypeauto" speedFactor="1.14" vaporized=""/>
    <tripinfo id="flow6.4" depart="22.60" departLane="end3_junction_0" departPos="4.10" departSpeed="0.00" departDelay="18.60" arrival="70.50" arrivalLane="junction_end2_0" arrivalPos="486.40" arrivalSpeed="35.95" duration="47.90" routeLength="977.73" waitingTime="0.00" waitingCount="0" stopTime="0.00" timeLoss="19.65" rerouteNo="0" devices="tripinfo_flow6.4" vType="vtypeauto" speedFactor="1.00" vaporized=""/>
    <tripinfo id="flow0.4" depart="22.90" departLane="end1_junction_0" departPos="4.10" departSpeed="0.00" departDelay="18.90" arrival="71.80" arrivalLane="junction_end4_0" arrivalPos="486.40" arrivalSpeed="35.05" duration="48.90" routeLength="977.73" waitingTime="0.00" waitingCount="0" stopTime="0.00" timeLoss="19.63" rerouteNo="0" devices="tripinfo_flow0.4" vType="vtypeauto" speedFactor="0.88" vaporized=""/>
    <tripinfo id="flow10.5" depart="31.00" departLane="end4_junction_0" departPos="4.10" departSpeed="0.00" departDelay="26.00" arrival="74.40" arrivalLane="junction_end2_1" arrivalPos="486.40" arrivalSpeed="35.91" duration="43.40" routeLength="995.90" waitingTime="0.00" waitingCount="0" stopTime="0.00" timeLoss="15.72" rerouteNo="0" devices="tripinfo_flow10.5" vType="vtypeauto" speedFactor="1.02" vaporized=""/>
    <tripinfo id="flow4.5" depart="31.10" departLane="end2_junction_0" departPos="4.10" departSpeed="0.00" departDelay="26.10" arrival="74.50" arrivalLane="junction_end4_1" arrivalPos="486.40" arrivalSpeed="35.97" duration="43.40" routeLength="995.90" waitingTime="0.00" waitingCount="0" stopTime="0.00" timeLoss="15.64" rerouteNo="0" devices="tripinfo_flow4.5" vType="vtypeauto" speedFactor="0.94" vaporized=""/>
    <tripinfo id="flow9.5" depart="28.20" departLane="end4_junction_0" departPos="4.10" departSpeed="0.00" departDelay="23.20" arrival="75.00" arrivalLane="junction_end3_0" arrivalPos="486.40" arrivalSpeed="35.99" duration="46.80" routeLength="977.73" waitingTime="0.00" waitingCount="0" stopTime="0.00" timeLoss="18.57" rerouteNo="0" devices="tripinfo_flow9.5" vType="vtypeauto" speedFactor="1.02" vaporized=""/>
    <tripinfo id="flow3.5" depart="28.30" departLane="end2_junction_0" departPos="4.10" departSpeed="0.00" departDelay="23.30" arrival="75.40" arrivalLane="junction_end1_0" arrivalPos="486.40" arrivalSpeed="35.95" duration="47.10" routeLength="977.73" waitingTime="0.00" waitingCount="0" stopTime="0.00" timeLoss="18.77" rerouteNo="0" devices="tripinfo_flow3.5" vType="vtypeauto" speedFactor="0.99" vaporized=""/>
    <tripinfo id="flow0.5" depart="28.50" departLane="end1_junction_0" departPos="4.10" departSpeed="0.00" departDelay="23.50" arrival="76.10" arrivalLane="junction_end4_0" arrivalPos="486.40" arrivalSpeed="35.95" duration="47.60" routeLength="977.73" waitingTime="0.00" waitingCount="0" stopTime="0.00" timeLoss="19.42" rerouteNo="0" devices="tripinfo_flow0.5" vType="vtypeauto" speedFactor="1.08" vaporized=""/>
    <tripinfo id="flow6.5" depart="28.20" departLane="end3_junction_0" departPos="4.10" departSpeed="0.00" departDelay="23.20" arrival="77.20" arrivalLane="junction_end2_0" arrivalPos="486.40" arrivalSpeed="35.90" duration="49.00" routeLength="977.73" waitingTime="0.00" waitingCount="0" stopTime="0.00" timeLoss="20.54" rerouteNo="0" devices="tripinfo_flow6.5" vType="vtypeauto" speedFactor="0.91" vaporized=""/>
    <tripinfo id="flow4.6" depart="36.60" departLane="end2_junction_0" departPos="4.10" departSpeed="0.00" departDelay="30.60" arrival="80.30" arrivalLane="junction_end4_1" arrivalPos="486.40" arrivalSpeed="35.92" duration="43.70" routeLength="995.90" waitingTime="0.00" waitingCount="0" stopTime="0.00" timeLoss="16.01" rerouteNo="0" devices="tripinfo_flow4.6" vType="vtypeauto" speedFactor="1.03" vaporized=""/>
    <tripinfo id="flow10.6" depart="36.70" departLane="end4_junction_0" departPos="4.10" departSpeed="0.00" departDelay="30.70" arrival="80.30" arrivalLane="junction_end2_1" arrivalPos="486.40" arrivalSpeed="35.97" duration="43.60" routeLength="995.90" waitingTime="0.00" waitingCount="0" stopTime="0.00" timeLoss="15.86" rerouteNo="0" devices="tripinfo_flow10.6" vType="vtypeauto" speedFactor="1.02" vaporized=""/>
    <tripinfo id="flow9.6" depart="33.90" departLane="end4_junction_0" departPos="4.10" departSpeed="0.00" departDelay="27.90" arrival="80.90" arrivalLane="junction_end3_0" arrivalPos="486.40" arrivalSpeed="35.88" duration="47.00" routeLength="977.73" waitingTime="0.00" waitingCount="0" stopTime="0.00" timeLoss="18.67" rerouteNo="0" devices="tripinfo_flow9.6" vType="vtypeauto" speedFactor="1.00" vaporized=""/>
    <tripinfo id="flow3.6" depart="33.90" departLane="end2_junction_0" departPos="4.10" departSpeed="0.00" departDelay="27.90" arrival="81.10" arrivalLane="junction_end1_0" arrivalPos="486.40" arrivalSpeed="35.97" duration="47.20" routeLength="977.73" waitingTime="0.00" waitingCount="0" stopTime="0.00" timeLoss="18.85" rerouteNo="0" devices="tripinfo_flow3.6" vType="vtypeauto" speedFactor="0.98" vaporized=""/>
    <tripinfo id="flow6.6" depart="33.90" departLane="end3_junction_0" departPos="4.10" departSpeed="0.00" departDelay="27.90" arrival="82.60" arrivalLane="junction_end2_0" arrivalPos="486.40" arrivalSpeed="35.89" duration="48.70" routeLength="977.73" waitingTime="0.00" waitingCount="0" stopTime="0.00" timeLoss="20.44" rerouteNo="0" devices="tripinfo_flow6.6" vType="vtypeauto" speedFactor="1.01" vaporized=""/>
    <tripinfo id="flow0.6" depart="34.20" departLane="end1_junction_0" departPos="4.10" departSpeed="0.00" departDelay="28.20" arrival="83.10" arrivalLane="junction_end4_0" arrivalPos="486.40" arrivalSpeed="35.88" duration="48.90" routeLength="977.73" waitingTime="0.00" waitingCount="0" stopTime="0.00" timeLoss="20.49" rerouteNo="0" devices="tripinfo_flow0.6" vType="vtypeauto" speedFactor="0.94" vaporized=""/>
    <tripinfo id="flow3.7" depart="39.50" departLane="end2_junction_0" departPos="4.10" departSpeed="0.00" departDelay="32.50" arrival="86.40" arrivalLane="junction_end1_0" arrivalPos="486.40" arrivalSpeed="35.91" duration="46.90" routeLength="977.73" waitingTime="0.00" waitingCount="0" stopTime="0.00" timeLoss="18.69" rerouteNo="0" devices="tripinfo_flow3.7" vType="vtypeauto" speedFactor="1.04" vaporized=""/>
    <tripinfo id="flow9.7" depart="39.60" departLane="end4_junction_0" departPos="4.10" departSpeed="0.00" departDelay="32.60" arrival="87.40" arrivalLane="junction_end3_0" arrivalPos="486.40" arrivalSpeed="35.89" duration="47.80" routeLength="977.73" waitingTime="0.00" waitingCount="0" stopTime="0.00" timeLoss="19.36" rerouteNo="0" devices="tripinfo_flow9.7" vType="vtypeauto" speedFactor="0.92" vaporized=""/>
    <tripinfo id="flow0.7" depart="39.80" departLane="end1_junction_0" departPos="4.10" departSpeed="0.00" departDelay="32.80" arrival="88.30" arrivalLane="junction_end4_0" arrivalPos="486.40" arrivalSpeed="35.90" duration="48.50" routeLength="977.73" waitingTime="0.00" waitingCount="0" stopTime="0.00" timeLoss="20.35" rerouteNo="0" devices="tripinfo_flow0.7" vType="vtypeauto" speedFactor="1.15" vaporized=""/>
    <tripinfo id="flow6.7" depart="39.50" departLane="end3_junction_0" departPos="4.10" departSpeed="0.00" departDelay="32.50" arrival="88.30" arrivalLane="junction_end2_0" arrivalPos="486.40" arrivalSpeed="35.88" duration="48.80" routeLength="977.73" waitingTime="0.00" waitingCount="0" stopTime="0.00" timeLoss="20.47" rerouteNo="0" devices="tripinfo_flow6.7" vType="vtypeauto" speedFactor="1.02" vaporized=""/>
    <tripinfo id="flow3.8" depart="45.30" departLane="end2_junction_0" departPos="4.10" departSpeed="0.00" departDelay="37.30" arrival="92.60" arrivalLane="junction_end1_0" arrivalPos="486.40" arrivalSpeed="35.92" duration="47.30" routeLength="977.73" waitingTime="0.00" waitingCount="0" stopTime="0.00" timeLoss="19.02" rerouteNo="0" devices="tripinfo_flow3.8" vType="vtypeauto" speedFactor="1.10" vaporized=""/>
    <tripinfo id="flow9.8" depart="45.30" departLane="end4_junction_0" departPos="4.10" departSpeed="0.00" departDelay="37.30" arrival="93.00" arrivalLane="junction_end3_0" arrivalPos="486.40" arrivalSpeed="35.88" duration="47.70" routeLength="977.73" waitingTime="0.00" waitingCount="0" stopTime="0.00" timeLoss="19.47" rerouteNo="0" devices="tripinfo_flow9.8" vType="vtypeauto" speedFactor="1.07" vaporized=""/>
    <tripinfo id="flow11.0" depart="2.90" departLane="end4_junction_0" departPos="4.10" departSpeed="0.00" departDelay="2.90" arrival="93.60" arrivalLane="junction_end1_2" arrivalPos="486.40" arrivalSpeed="35.97" duration="90.70" routeLength="993.21" waitingTime="39.80" waitingCount="1" stopTime="0.00" timeLoss="61.47" rerouteNo="0" devices="tripinfo_flow11.0" vType="vtypeauto" speedFactor="1.03" vaporized=""/>
    <tripinfo id="flow6.8" depart="45.20" departLane="end3_junction_0" departPos="4.10" departSpeed="0.00" departDelay="37.20" arrival="94.50" arrivalLane="junction_end2_0" arrivalPos="486.40" arrivalSpeed="35.95" duration="49.30" routeLength="977.73" waitingTime="0.00" waitingCount="0" stopTime="0.00" timeLoss="20.92" rerouteNo="0" devices="tripinfo_flow6.8" vType="vtypeauto" speedFactor="0.97" vaporized=""/>
    <tripinfo id="flow5.0" depart="2.90" departLane="end2_junction_0" departPos="4.10" departSpeed="0.00" departDelay="2.90" arrival="94.60" arrivalLane="junction_end3_2" arrivalPos="486.40" arrivalSpeed="33.13" duration="91.70" routeLength="993.21" waitingTime="39.60" waitingCount="1" stopTime="0.00" timeLoss="59.64" rerouteNo="0" devices="tripinfo_flow5.0" vType="vtypeauto" speedFactor="0.83" vaporized=""/>
    <tripinfo id="flow0.8" depart="45.50" departLane="end1_junction_0" departPos="4.10" departSpeed="0.00" departDelay="37.50" arrival="94.80" arrivalLane="junction_end4_0" arrivalPos="486.40" arrivalSpeed="35.94" duration="49.30" routeLength="977.73" waitingTime="0.00" waitingCount="0" stopTime="0.00" timeLoss="21.01" rerouteNo="0" devices="tripinfo_flow0.8" vType="vtypeauto" speedFactor="1.01" vaporized=""/>
    <tripinfo id="flow11.1" depart="8.60" departLane="end4_junction_0" departPos="4.10" departSpeed="0.00" departDelay="7.60" arrival="95.60" arrivalLane="junction_end1_2" arrivalPos="486.40" arrivalSpeed="35.55" duration="87.00" routeLength="993.21" waitingTime="30.20" waitingCount="1" stopTime="0.00" timeLoss="57.05" rerouteNo="0" devices="tripinfo_flow11.1" vType="vtypeauto" speedFactor="0.89" vaporized=""/>
    <tripinfo id="flow5.1" depart="8.50" departLane="end2_junction_0" departPos="4.10" departSpeed="0.00" departDelay="7.50" arrival="95.80" arrivalLane="junction_end3_2" arrivalPos="486.40" arrivalSpeed="35.46" duration="87.30" routeLength="993.21" waitingTime="29.60" waitingCount="1" stopTime="0.00" timeLoss="57.78" rerouteNo="0" devices="tripinfo_flow5.1" vType="vtypeauto" speedFactor="0.94" vaporized=""/>
    <tripinfo id="flow11.2" depart="14.10" departLane="end4_junction_0" departPos="4.10" departSpeed="0.00" departDelay="12.10" arrival="96.80" arrivalLane="junction_end1_2" arrivalPos="486.40" arrivalSpeed="35.92" duration="82.70" routeLength="993.21" waitingTime="25.00" waitingCount="1" stopTime="0.00" timeLoss="53.42" rerouteNo="0" devices="tripinfo_flow11.2" vType="vtypeauto" speedFactor="1.02" vaporized=""/>
    <tripinfo id="flow5.2" depart="14.10" departLane="end2_junction_0" departPos="4.10" departSpeed="0.00" departDelay="12.10" arrival="97.10" arrivalLane="junction_end3_2" arrivalPos="486.40" arrivalSpeed="35.93" duration="83.00" routeLength="993.21" waitingTime="26.80" waitingCount="1" stopTime="0.00" timeLoss="53.50" rerouteNo="0" devices="tripinfo_flow5.2" vType="vtypeauto" speedFactor="0.93" vaporized=""/>
    <tripinfo id="flow5.3" depart="19.80" departLane="end2_junction_0" departPos="4.10" departSpeed="0.00" departDelay="16.80" arrival="98.70" arrivalLane="junction_end3_2" arrivalPos="486.40" arrivalSpeed="35.93" duration="78.90" routeLength="993.21" waitingTime="20.20" waitingCount="1" stopTime="0.00" timeLoss="49.40" rerouteNo="0" devices="tripinfo_flow5.3" vType="vtypeauto" speedFactor="0.96" vaporized=""/>
    <tripinfo id="flow11.3" depart="19.80" departLane="end4_junction_0" departPos="4.10" departSpeed="0.00" departDelay="16.80" arrival="98.90" arrivalLane="junction_end1_2" arrivalPos="486.40" arrivalSpeed="35.95" duration="79.10" routeLength="993.21" waitingTime="19.80" waitingCount="1" stopTime="0.00" timeLoss="49.51" rerouteNo="0" devices="tripinfo_flow11.3" vType="vtypeauto" speedFactor="0.90" vaporized=""/>
    <tripinfo id="flow9.9" depart="51.00" departLane="end4_junction_0" departPos="4.10" departSpeed="0.00" departDelay="42.00" arrival="99.50" arrivalLane="junction_end3_0" arrivalPos="486.40" arrivalSpeed="35.89" duration="48.50" routeLength="977.73" waitingTime="0.00" waitingCount="0" stopTime="0.00" timeLoss="20.24" rerouteNo="0" devices="tripinfo_flow9.9" vType="vtypeauto" speedFactor="1.00" vaporized=""/>
    <tripinfo id="flow5.4" depart="25.50" departLane="end2_junction_0" departPos="4.10" departSpeed="0.00" departDelay="21.50" arrival="99.80" arrivalLane="junction_end3_2" arrivalPos="486.40" arrivalSpeed="35.97" duration="74.30" routeLength="993.21" waitingTime="15.10" waitingCount="1" stopTime="0.00" timeLoss="45.21" rerouteNo="0" devices="tripinfo_flow5.4" vType="vtypeauto" speedFactor="1.10" vaporized=""/>
    <tripinfo id="flow11.4" depart="25.40" departLane="end4_junction_0" departPos="4.10" departSpeed="0.00" departDelay="21.40" arrival="100.20" arrivalLane="junction_end1_2" arrivalPos="486.40" arrivalSpeed="35.97" duration="74.80" routeLength="993.21" waitingTime="15.10" waitingCount="1" stopTime="0.00" timeLoss="45.42" rerouteNo="0" devices="tripinfo_flow11.4" vType="vtypeauto" speedFactor="0.97" vaporized=""/>
    <tripinfo id="flow0.9" depart="51.30" departLane="end1_junction_0" departPos="4.10" departSpeed="0.00" departDelay="42.30" arrival="100.40" arrivalLane="junction_end4_0" arrivalPos="486.40" arrivalSpeed="35.98" duration="49.10" routeLength="977.73" waitingTime="0.00" waitingCount="0" stopTime="0.00" timeLoss="20.86" rerouteNo="0" devices="tripinfo_flow0.9" vType="vtypeauto" speedFactor="1.06" vaporized=""/>
    <tripinfo id="flow3.9" depart="51.00" departLane="end2_junction_0" departPos="4.10" departSpeed="0.00" departDelay="42.00" arrival="100.40" arrivalLane="junction_end1_0" arrivalPos="486.40" arrivalSpeed="34.57" duration="49.40" routeLength="977.73" waitingTime="0.00" waitingCount="0" stopTime="0.00" timeLoss="19.78" rerouteNo="0" devices="tripinfo_flow3.9" vType="vtypeauto" speedFactor="0.87" vaporized=""/>
    <tripinfo id="flow6.9" depart="50.80" departLane="end3_junction_0" departPos="4.10" departSpeed="0.00" departDelay="41.80" arrival="100.50" arrivalLane="junction_end2_0" arrivalPos="486.40" arrivalSpeed="35.91" duration="49.70" routeLength="977.73" waitingTime="0.00" waitingCount="0" stopTime="0.00" timeLoss="21.43" rerouteNo="0" devices="tripinfo_flow6.9" vType="vtypeauto" speedFactor="1.10" vaporized=""/>
    <tripinfo id="flow11.5" depart="31.10" departLane="end4_junction_0" departPos="4.10" departSpeed="0.00" departDelay="26.10" arrival="102.10" arrivalLane="junction_end1_2" arrivalPos="486.40" arrivalSpeed="35.95" duration="71.00" routeLength="993.21" waitingTime="10.40" waitingCount="1" stopTime="0.00" timeLoss="41.67" rerouteNo="0" devices="tripinfo_flow11.5" vType="vtypeauto" speedFactor="0.97" vaporized=""/>
    <tripinfo id="flow5.5" depart="31.20" departLane="end2_junction_0" departPos="4.10" departSpeed="0.00" departDelay="26.20" arrival="102.70" arrivalLane="junction_end3_2" arrivalPos="486.40" arrivalSpeed="35.23" duration="71.50" routeLength="993.21" waitingTime="10.40" waitingCount="1" stopTime="0.00" timeLoss="41.35" rerouteNo="0" devices="tripinfo_flow5.5" vType="vtypeauto" speedFactor="0.88" vaporized=""/>
    <tripinfo id="flow11.6" depart="36.80" departLane="end4_junction_0" departPos="4.10" departSpeed="0.00" departDelay="30.80" arrival="103.90" arrivalLane="junction_end1_2" arrivalPos="486.40" arrivalSpeed="35.96" duration="67.10" routeLength="993.21" waitingTime="5.60" waitingCount="1" stopTime="0.00" timeLoss="37.69" rerouteNo="0" devices="tripinfo_flow11.6" vType="vtypeauto" speedFactor="0.97" vaporized=""/>
    <tripinfo id="flow5.6" depart="36.70" departLane="end2_junction_0" departPos="4.10" departSpeed="0.00" departDelay="30.70" arrival="104.00" arrivalLane="junction_end3_2" arrivalPos="486.40" arrivalSpeed="35.95" duration="67.30" routeLength="993.21" waitingTime="5.60" waitingCount="1" stopTime="0.00" timeLoss="37.91" rerouteNo="0" devices="tripinfo_flow5.6" vType="vtypeauto" speedFactor="0.98" vaporized=""/>
    <tripinfo id="flow11.7" depart="42.50" departLane="end4_junction_0" departPos="4.10" departSpeed="0.00" departDelay="35.50" arrival="105.10" arrivalLane="junction_end1_2" arrivalPos="486.40" arrivalSpeed="35.88" duration="62.60" routeLength="993.21" waitingTime="0.00" waitingCount="0" stopTime="0.00" timeLoss="33.44" rerouteNo="0" devices="tripinfo_flow11.7" vType="vtypeauto" speedFactor="1.06" vaporized=""/>
    <tripinfo id="flow3.10" depart="56.70" departLane="end2_junction_0" departPos="4.10" departSpeed="0.00" departDelay="46.70" arrival="105.20" arrivalLane="junction_end1_0" arrivalPos="486.40" arrivalSpeed="35.90" duration="48.50" routeLength="977.73" waitingTime="0.00" waitingCount="0" stopTime="0.00" timeLoss="20.19" rerouteNo="0" devices="tripinfo_flow3.10" vType="vtypeauto" speedFactor="1.02" vaporized=""/>