<?xml version="1.0" encoding="UTF-8"?>

<!-- generated on 2024-09-07 19:35:41 by Eclipse SUMO GUI Version 1.20.0
<configuration xmlns:xsi="http://www.w3.org/2001/XMLSchema-instance" xsi:noNamespaceSchemaLocation="http://sumo.dlr.de/xsd/sumoConfiguration.xsd">

    <input>
        <net-file value="sim_cfg_grid/grid.net.xml"/>
        <route-files value="sim_cfg_grid/grid.rou.xml"/>
    </input>

    <output>
        <tripinfo-output value="sim_cfg_grid/tripinfo.xml"/>
    </output>

    <time>
        <begin value="0"/>
        <end value="500"/>
        <step-length value="0.1"/>
    </time>

    <traci_server>
        <remote-port value="49846"/>
    </traci_server>

    <gui_only>
        <gui-settings-file value="sim_cfg_grid/gui_settings.xml"/>
    </gui_only>

</configuration>
-->

<tripinfos xmlns:xsi="http://www.w3.org/2001/XMLSchema-instance" xsi:noNamespaceSchemaLocation="http://sumo.dlr.de/xsd/tripinfo_file.xsd">
    <tripinfo id="flow1.0" depart="0.00" departLane="A3B3_0" departPos="4.10" departSpeed="0.00" departDelay="0.00" arrival="50.30" arrivalLane="D3E3_0" arrivalPos="85.60" arrivalSpeed="12.97" duration="50.30" routeLength="381.50" waitingTime="10.80" waitingCount="2" stopTime="0.00" timeLoss="20.96" rerouteNo="0" devices="tripinfo_flow1.0" vType="vtypeauto" speedFactor="0.94" vaporized=""/>
    <tripinfo id="flow1.1" depart="2.60" departLane="A3B3_0" departPos="4.10" departSpeed="0.00" departDelay="1.60" arrival="51.70" arrivalLane="D3E3_0" arrivalPos="85.60" arrivalSpeed="13.95" duration="49.10" routeLength="381.50" waitingTime="2.10" waitingCount="2" stopTime="0.00" timeLoss="22.09" rerouteNo="0" devices="tripinfo_flow1.1" vType="vtypeauto@flow1.1" speedFactor="1.01" vaporized=""/>
    <tripinfo id="flow1.2" depart="5.20" departLane="A3B3_0" departPos="4.10" departSpeed="0.00" departDelay="3.20" arrival="53.80" arrivalLane="D3E3_0" arrivalPos="85.60" arrivalSpeed="12.24" duration="48.60" routeLength="381.50" waitingTime="0.00" waitingCount="0" stopTime="0.00" timeLoss="17.55" rerouteNo="0" devices="tripinfo_flow1.2" vType="vtypeauto" speedFactor="0.89" vaporized=""/>
    <tripinfo id="flow1.3" depart="7.80" departLane="A3B3_0" departPos="4.10" departSpeed="0.00" departDelay="4.80" arrival="55.20" arrivalLane="D3E3_0" arrivalPos="85.60" arrivalSpeed="14.78" duration="47.40" routeLength="381.50" waitingTime="0.00" waitingCount="0" stopTime="0.00" timeLoss="22.18" rerouteNo="0" devices="tripinfo_flow1.3" vType="vtypeauto" speedFactor="1.09" vaporized=""/>
    <tripinfo id="flow1.4" depart="10.40" departLane="A3B3_0" departPos="4.10" departSpeed="0.00" departDelay="6.40" arrival="56.50" arrivalLane="D3E3_0" arrivalPos="85.60" arrivalSpeed="15.56" duration="46.10" routeLength="381.50" waitingTime="0.00" waitingCount="0" stopTime="0.00" timeLoss="21.63" rerouteNo="0" devices="tripinfo_flow1.4" vType="vtypeauto" speedFactor="1.12" vaporized=""/>
    <tripinfo id="flow1.5" depart="13.00" departLane="A3B3_0" departPos="4.10" departSpeed="0.00" departDelay="8.00" arrival="58.40" arrivalLane="D3E3_0" arrivalPos="85.60" arrivalSpeed="12.17" duration="45.40" routeLength="381.50" waitingTime="0.00" waitingCount="0" stopTime="0.00" timeLoss="14.13" rerouteNo="0" devices="tripinfo_flow1.5" vType="vtypeauto" speedFactor="0.88" vaporized=""/>
    <tripinfo id="flow1.6" depart="15.50" departLane="A3B3_0" departPos="4.10" departSpeed="0.00" departDelay="9.50" arrival="59.90" arrivalLane="D3E3_0" arrivalPos="85.60" arrivalSpeed="14.97" duration="44.40" routeLength="381.50" waitingTime="0.00" waitingCount="0" stopTime="0.00" timeLoss="20.61" rerouteNo="0" devices="tripinfo_flow1.6" vType="vtypeauto" speedFactor="1.16" vaporized=""/>
    <tripinfo id="flow1.7" depart="18.10" departLane="A3B3_0" departPos="4.10" departSpeed="0.00" departDelay="11.10" arrival="61.30" arrivalLane="D3E3_0" arrivalPos="85.60" arrivalSpeed="13.52" duration="43.20" routeLength="381.50" waitingTime="0.00" waitingCount="0" stopTime="0.00" timeLoss="15.02" rerouteNo="0" devices="tripinfo_flow1.7" vType="vtypeauto" speedFactor="0.97" vaporized=""/>
    <tripinfo id="flow1.8" depart="20.60" departLane="A3B3_0" departPos="4.10" departSpeed="0.00" departDelay="12.60" arrival="63.10" arrivalLane="D3E3_0" arrivalPos="85.60" arrivalSpeed="12.00" duration="42.50" routeLength="381.50" waitingTime="0.00" waitingCount="0" stopTime="0.00" timeLoss="11.01" rerouteNo="0" devices="tripinfo_flow1.8" vType="vtypeauto" speedFactor="0.87" vaporized=""/>
    <tripinfo id="flow1.9" depart="23.20" departLane="A3B3_0" departPos="4.10" departSpeed="0.00" departDelay="14.20" arrival="64.60" arrivalLane="D3E3_0" arrivalPos="85.60" arrivalSpeed="14.75" duration="41.40" routeLength="381.50" waitingTime="0.00" waitingCount="0" stopTime="0.00" timeLoss="17.05" rerouteNo="0" devices="tripinfo_flow1.9" vType="vtypeauto" speedFactor="1.13" vaporized=""/>
    <tripinfo id="flow1.10" depart="25.80" departLane="A3B3_0" departPos="4.10" departSpeed="0.00" departDelay="15.80" arrival="65.90" arrivalLane="D3E3_0" arrivalPos="85.60" arrivalSpeed="15.97" duration="40.10" routeLength="381.50" waitingTime="0.00" waitingCount="0" stopTime="0.00" timeLoss="16.24" rerouteNo="0" devices="tripinfo_flow1.10" vType="vtypeauto" speedFactor="1.15" vaporized=""/>
    <tripinfo id="flow1.11" depart="28.40" departLane="A3B3_0" departPos="4.10" departSpeed="0.00" departDelay="17.40" arrival="67.40" arrivalLane="D3E3_0" arrivalPos="85.60" arrivalSpeed="13.79" duration="39.00" routeLength="381.50" waitingTime="0.00" waitingCount="0" stopTime="0.00" timeLoss="11.36" rerouteNo="0" devices="tripinfo_flow1.11" vType="vtypeauto" speedFactor="0.99" vaporized=""/>
    <tripinfo id="flow1.12" depart="31.00" departLane="A3B3_0" departPos="4.10" departSpeed="0.00" departDelay="19.00" arrival="68.80" arrivalLane="D3E3_0" arrivalPos="85.60" arrivalSpeed="16.19" duration="37.80" routeLength="381.50" waitingTime="0.00" waitingCount="0" stopTime="0.00" timeLoss="14.45" rerouteNo="0" devices="tripinfo_flow1.12" vType="vtypeauto" speedFactor="1.18" vaporized=""/>
    <tripinfo id="flow1.13" depart="33.50" departLane="A3B3_0" departPos="4.10" departSpeed="0.00" departDelay="20.50" arrival="70.30" arrivalLane="D3E3_0" arrivalPos="85.60" arrivalSpeed="14.25" duration="36.80" routeLength="381.50" waitingTime="0.00" waitingCount="0" stopTime="0.00" timeLoss="10.06" rerouteNo="0" devices="tripinfo_flow1.13" vType="vtypeauto" speedFactor="1.03" vaporized=""/>
    <tripinfo id="flow1.14" depart="36.10" departLane="A3B3_0" departPos="4.10" departSpeed="0.00" departDelay="22.10" arrival="71.70" arrivalLane="D3E3_0" arrivalPos="85.60" arrivalSpeed="14.39" duration="35.60" routeLength="381.50" waitingTime="0.00" waitingCount="0" stopTime="0.00" timeLoss="9.09" rerouteNo="0" devices="tripinfo_flow1.14" vType="vtypeauto" speedFactor="1.04" vaporized=""/>
    <tripinfo id="flow1.15" depart="38.70" departLane="A3B3_0" departPos="4.10" departSpeed="0.00" departDelay="23.70" arrival="73.20" arrivalLane="D3E3_0" arrivalPos="85.60" arrivalSpeed="13.77" duration="34.50" routeLength="381.50" waitingTime="0.00" waitingCount="0" stopTime="0.00" timeLoss="6.96" rerouteNo="0" devices="tripinfo_flow1.15" vType="vtypeauto" speedFactor="1.00" vaporized=""/>
    <tripinfo id="flow1.16" depart="41.30" departLane="A3B3_0" departPos="4.10" departSpeed="0.00" departDelay="25.30" arrival="76.90" arrivalLane="D3E3_0" arrivalPos="85.60" arrivalSpeed="11.74" duration="35.60" routeLength="381.50" waitingTime="0.00" waitingCount="0" stopTime="0.00" timeLoss="3.28" rerouteNo="0" devices="tripinfo_flow1.16" vType="vtypeauto" speedFactor="0.85" vaporized=""/>
    <tripinfo id="flow1.17" depart="44.00" departLane="A3B3_0" departPos="4.10" departSpeed="0.00" departDelay="27.00" arrival="78.40" arrivalLane="D3E3_0" arrivalPos="85.60" arrivalSpeed="14.04" duration="34.40" routeLength="381.50" waitingTime="0.00" waitingCount="0" stopTime="0.00" timeLoss="7.30" rerouteNo="0" devices="tripinfo_flow1.17" vType="vtypeauto" speedFactor="1.02" vaporized=""/>
    <tripinfo id="flow1.18" depart="46.60" departLane="A3B3_0" departPos="4.10" departSpeed="0.00" departDelay="28.60" arrival="79.80" arrivalLane="D3E3_0" arrivalPos="85.60" arrivalSpeed="13.73" duration="33.20" routeLength="381.50" waitingTime="0.00" waitingCount="0" stopTime="0.00" timeLoss="5.57" rerouteNo="0" devices="tripinfo_flow1.18" vType="vtypeauto" speedFactor="1.00" vaporized=""/>
    <tripinfo id="flow2.0" depart="0.00" departLane="A0A1_0" departPos="4.10" departSpeed="0.00" departDelay="0.00" arrival="80.70" arrivalLane="C3D3_0" arrivalPos="85.60" arrivalSpeed="13.97" duration="80.70" routeLength="568.99" waitingTime="23.00" waitingCount="2" stopTime="0.00" timeLoss="36.50" rerouteNo="0" devices="tripinfo_flow2.0" vType="vtypeauto" speedFactor="1.01" vaporized=""/>
    <tripinfo id="flow1.19" depart="49.20" departLane="A3B3_0" departPos="4.10" departSpeed="0.00" departDelay="30.20" arrival="81.20" arrivalLane="D3E3_0" arrivalPos="85.60" arrivalSpeed="14.17" duration="32.00" routeLength="381.50" waitingTime="0.00" waitingCount="0" stopTime="0.00" timeLoss="5.14" rerouteNo="0" devices="tripinfo_flow1.19" vType="vtypeauto" speedFactor="1.02" vaporized=""/>
    <tripinfo id="flow2.1" depart="2.60" departLane="A0A1_0" departPos="4.10" departSpeed="0.00" departDelay="1.60" arrival="82.00" arrivalLane="C3D3_0" arrivalPos="85.60" arrivalSpeed="16.20" duration="79.40" routeLength="568.99" waitingTime="8.00" waitingCount="2" stopTime="0.00" timeLoss="31.41" rerouteNo="0" devices="tripinfo_flow2.1" vType="vtypeauto@flow2.1" speedFactor="2.15" vaporized=""/>
    <tripinfo id="flow2.2" depart="5.30" departLane="A0A1_0" departPos="4.10" departSpeed="0.00" departDelay="3.30" arrival="84.60" arrivalLane="C3D3_0" arrivalPos="85.60" arrivalSpeed="13.95" duration="79.30" routeLength="568.99" waitingTime="3.20" waitingCount="1" stopTime="0.00" timeLoss="33.49" rerouteNo="0" devices="tripinfo_flow2.2" vType="vtypeauto@flow2.2" speedFactor="1.01" vaporized=""/>
    <tripinfo id="flow2.3" depart="8.00" departLane="A0A1_0" departPos="4.10" departSpeed="0.00" departDelay="5.00" arrival="85.80" arrivalLane="C3D3_0" arrivalPos="85.60" arrivalSpeed="15.70" duration="77.80" routeLength="568.99" waitingTime="1.00" waitingCount="1" stopTime="0.00" timeLoss="40.42" rerouteNo="0" devices="tripinfo_flow2.3" vType="vtypeauto@flow2.3" speedFactor="1.75" vaporized=""/>
    <tripinfo id="flow2.4" depart="10.60" departLane="A0A1_0" departPos="4.10" departSpeed="0.00" departDelay="6.60" arrival="88.10" arrivalLane="C3D3_0" arrivalPos="85.60" arrivalSpeed="13.71" duration="77.50" routeLength="568.99" waitingTime="0.00" waitingCount="0" stopTime="0.00" timeLoss="32.42" rerouteNo="0" devices="tripinfo_flow2.4" vType="vtypeauto" speedFactor="0.99" vaporized=""/>
    <tripinfo id="flow2.5" depart="13.20" departLane="A0A1_0" departPos="4.10" departSpeed="0.00" departDelay="8.20" arrival="90.60" arrivalLane="C3D3_0" arrivalPos="85.60" arrivalSpeed="13.02" duration="77.40" routeLength="568.99" waitingTime="0.00" waitingCount="0" stopTime="0.00" timeLoss="29.88" rerouteNo="0" devices="tripinfo_flow2.5" vType="vtypeauto" speedFactor="0.94" vaporized=""/>
    <tripinfo id="flow2.6" depart="15.70" departLane="A0A1_0" departPos="4.10" departSpeed="0.00" departDelay="9.70" arrival="92.20" arrivalLane="C3D3_0" arrivalPos="85.60" arrivalSpeed="14.07" duration="76.50" routeLength="568.99" waitingTime="0.00" waitingCount="0" stopTime="0.00" timeLoss="32.59" rerouteNo="0" devices="tripinfo_flow2.6" vType="vtypeauto" speedFactor="1.02" vaporized=""/>
    <tripinfo id="flow2.7" depart="18.30" departLane="A0A1_0" departPos="4.10" departSpeed="0.00" departDelay="11.30" arrival="95.20" arrivalLane="C3D3_0" arrivalPos="85.60" arrivalSpeed="12.31" duration="76.90" routeLength="568.99" waitingTime="0.00" waitingCount="0" stopTime="0.00" timeLoss="26.70" rerouteNo="0" devices="tripinfo_flow2.7" vType="vtypeauto" speedFactor="0.89" vaporized=""/>
    <tripinfo id="flow2.8" depart="20.90" departLane="A0A1_0" departPos="4.10" departSpeed="0.00" departDelay="12.90" arrival="97.30" arrivalLane="C3D3_0" arrivalPos="85.60" arrivalSpeed="12.72" duration="76.40" routeLength="568.99" waitingTime="0.00" waitingCount="0" stopTime="0.00" timeLoss="27.66" rerouteNo="0" devices="tripinfo_flow2.8" vType="vtypeauto" speedFactor="0.92" vaporized=""/>
    <tripinfo id="flow2.9" depart="23.50" departLane="A0A1_0" departPos="4.10" departSpeed="0.00" departDelay="14.50" arrival="99.30" arrivalLane="C3D3_0" arrivalPos="85.60" arrivalSpeed="12.89" duration="75.80" routeLength="568.99" waitingTime="0.00" waitingCount="0" stopTime="0.00" timeLoss="27.73" rerouteNo="0" devices="tripinfo_flow2.9" vType="vtypeauto" speedFactor="0.93" vaporized=""/>
    <tripinfo id="flow2.10" depart="26.10" departLane="A0A1_0" departPos="4.10" departSpeed="0.00" departDelay="16.10" arrival="100.90" arrivalLane="C3D3_0" arrivalPos="85.60" arrivalSpeed="13.88" duration="74.80" routeLength="568.99" waitingTime="0.00" waitingCount="0" stopTime="0.00" timeLoss="30.35" rerouteNo="0" devices="tripinfo_flow2.10" vType="vtypeauto" speedFactor="1.01" vaporized=""/>
    <tripinfo id="flow2.11" depart="28.70" departLane="A0A1_0" departPos="4.10" departSpeed="0.00" departDelay="17.70" arrival="102.80" arrivalLane="C3D3_0" arrivalPos="85.60" arrivalSpeed="14.15" duration="74.10" routeLength="568.99" waitingTime="0.00" waitingCount="0" stopTime="0.00" timeLoss="30.24" rerouteNo="0" devices="tripinfo_flow2.11" vType="vtypeauto" speedFactor="1.02" vaporized=""/>
    <tripinfo id="flow2.12" depart="31.30" departLane="A0A1_0" departPos="4.10" departSpeed="0.00" departDelay="19.30" arrival="104.40" arrivalLane="C3D3_0" arrivalPos="85.60" arrivalSpeed="15.28" duration="73.10" routeLength="568.99" waitingTime="0.00" waitingCount="0" stopTime="0.00" timeLoss="32.60" rerouteNo="0" devices="tripinfo_flow2.12" vType="vtypeauto" speedFactor="1.10" vaporized=""/>
    <tripinfo id="flow2.13" depart="33.90" departLane="A0A1_0" departPos="4.10" departSpeed="0.00" departDelay="20.90" arrival="107.20" arrivalLane="C3D3_0" arrivalPos="85.60" arrivalSpeed="13.25" duration="73.30" routeLength="568.99" waitingTime="0.00" waitingCount="0" stopTime="0.00" timeLoss="26.65" rerouteNo="0" devices="tripinfo_flow2.13" vType="vtypeauto" speedFactor="0.96" vaporized=""/>
    <tripinfo id="flow2.14" depart="36.50" departLane="A0A1_0" departPos="4.10" departSpeed="0.00" departDelay="22.50" arrival="108.80" arrivalLane="C3D3_0" arrivalPos="85.60" arrivalSpeed="14.40" duration="72.30" routeLength="568.99" waitingTime="0.00" waitingCount="0" stopTime="0.00" timeLoss="29.46" rerouteNo="0" devices="tripinfo_flow2.14" vType="vtypeauto" speedFactor="1.04" vaporized=""/>
    <tripinfo id="flow2.15" depart="39.10" departLane="A0A1_0" departPos="4.10" departSpeed="0.00" departDelay="24.10" arrival="111.90" arrivalLane="C3D3_0" arrivalPos="85.60" arrivalSpeed="12.45" duration="72.80" routeLength="568.99" waitingTime="0.00" waitingCount="0" stopTime="0.00" timeLoss="23.20" rerouteNo="0" devices="tripinfo_flow2.15" vType="vtypeauto" speedFactor="0.90" vaporized=""/>
    <tripinfo id="flow2.16" depart="41.60" departLane="A0A1_0" departPos="4.10" departSpeed="0.00" departDelay="25.60" arrival="114.60" arrivalLane="C3D3_0" arrivalPos="85.60" arrivalSpeed="11.84" duration="73.00" routeLength="568.99" waitingTime="0.00" waitingCount="0" stopTime="0.00" timeLoss="20.72" rerouteNo="0" devices="tripinfo_flow2.16" vType="vtypeauto" speedFactor="0.85" vaporized=""/>
    <tripinfo id="flow2.17" depart="44.20" departLane="A0A1_0" departPos="4.10" departSpeed="0.00" departDelay="27.20" arrival="116.00" arrivalLane="C3D3_0" arrivalPos="85.60" arrivalSpeed="14.59" duration="71.80" routeLength="568.99" waitingTime="0.00" waitingCount="0" stopTime="0.00" timeLoss="31.01" rerouteNo="0" devices="tripinfo_flow2.17" vType="vtypeauto" speedFactor="1.10" vaporized=""/>
    <tripinfo id="flow2.18" depart="46.80" departLane="A0A1_0" departPos="4.10" departSpeed="0.00" departDelay="28.80" arrival="118.40" arrivalLane="C3D3_0" arrivalPos="85.60" arrivalSpeed="12.46" duration="71.60" routeLength="568.99" waitingTime="0.00" waitingCount="0" stopTime="0.00" timeLoss="21.90" rerouteNo="0" devices="tripinfo_flow2.18" vType="vtypeauto" speedFactor="0.90" vaporized=""/>
    <tripinfo id="flow2.19" depart="49.40" departLane="A0A1_0" departPos="4.10" departSpeed="0.00" departDelay="30.40" arrival="120.10" arrivalLane="C3D3_0" arrivalPos="85.60" arrivalSpeed="13.41" duration="70.70" routeLength="568.99" waitingTime="0.00" waitingCount="0" stopTime="0.00" timeLoss="24.61" rerouteNo="0" devices="tripinfo_flow2.19" vType="vtypeauto" speedFactor="0.97" vaporized=""/>
    <tripinfo id="flow2.20" depart="52.00" departLane="A0A1_0" departPos="4.10" departSpeed="0.00" departDelay="32.00" arrival="121.90" arrivalLane="C3D3_0" arrivalPos="85.60" arrivalSpeed="14.03" duration="69.90" routeLength="568.99" waitingTime="0.00" waitingCount="0" stopTime="0.00" timeLoss="25.82" rerouteNo="0" devices="tripinfo_flow2.20" vType="vtypeauto" speedFactor="1.02" vaporized=""/>
    <tripinfo id="flow0.0" depart="0.00" departLane="B4B3_0" departPos="4.10" departSpeed="0.00" departDelay="0.00" arrival="130.30" arrivalLane="B3A3_0" arrivalPos="85.60" arrivalSpeed="14.63" duration="130.30" routeLength="580.90" waitingTime="61.90" waitingCount="2" stopTime="0.00" timeLoss="88.66" rerouteNo="0" devices="tripinfo_flow0.0" vType="vtypeauto" speedFactor="1.06" vaporized=""/>
    <tripinfo id="flow1.20" depart="51.80" departLane="A3B3_0" departPos="4.10" departSpeed="0.00" departDelay="31.80" arrival="144.60" arrivalLane="D3E3_0" arrivalPos="85.60" arrivalSpeed="15.44" duration="92.80" routeLength="381.50" waitingTime="51.70" waitingCount="3" stopTime="0.00" timeLoss="68.18" rerouteNo="0" devices="tripinfo_flow1.20" vType="vtypeauto" speedFactor="1.12" vaporized=""/>
    <tripinfo id="flow1.21" depart="54.40" departLane="A3B3_0" departPos="4.10" departSpeed="0.00" departDelay="33.40" arrival="146.20" arrivalLane="D3E3_0" arrivalPos="85.60" arrivalSpeed="13.99" duration="91.80" routeLength="381.50" waitingTime="42.50" waitingCount="3" stopTime="0.00" timeLoss="64.14" rerouteNo="0" devices="tripinfo_flow1.21" vType="vtypeauto@flow1.21" speedFactor="1.01" vaporized=""/>
    <tripinfo id="flow1.22" depart="57.00" departLane="A3B3_0" departPos="4.10" departSpeed="0.00" departDelay="35.00" arrival="147.90" arrivalLane="D3E3_0" arrivalPos="85.60" arrivalSpeed="13.98" duration="90.90" routeLength="381.50" waitingTime="33.70" waitingCount="3" stopTime="0.00" timeLoss="63.08" rerouteNo="0" devices="tripinfo_flow1.22" vType="vtypeauto@flow1.22" speedFactor="1.01" vaporized=""/>
    <tripinfo id="flow1.23" depart="59.60" departLane="A3B3_0" departPos="4.10" departSpeed="0.00" departDelay="36.60" arrival="149.10" arrivalLane="D3E3_0" arrivalPos="85.60" arrivalSpeed="13.89" duration="89.50" routeLength="381.50" waitingTime="27.80" waitingCount="3" stopTime="0.00" timeLoss="62.28" rerouteNo="0" devices="tripinfo_flow1.23" vType="vtypeauto@flow1.23" speedFactor="1.01" vaporized=""/>
    <tripinfo id="flow1.24" depart="62.20" departLane="A3B3_0" departPos="4.10" departSpeed="0.00" departDelay="38.20" arrival="150.40" arrivalLane="D3E3_0" arrivalPos="85.60" arrivalSpeed="13.90" duration="88.20" routeLength="381.50" waitingTime="23.20" waitingCount="2" stopTime="0.00" timeLoss="61.05" rerouteNo="0" devices="tripinfo_flow1.24" vType="vtypeauto@flow1.24" speedFactor="1.01" vaporized=""/>
    <tripinfo id="flow1.25" depart="64.80" departLane="A3B3_0" departPos="4.10" departSpeed="0.00" departDelay="39.80" arrival="151.60" arrivalLane="D3E3_0" arrivalPos="85.60" arrivalSpeed="13.96" duration="86.80" routeLength="381.50" waitingTime="21.30" waitingCount="2" stopTime="0.00" timeLoss="59.60" rerouteNo="0" devices="tripinfo_flow1.25" vType="vtypeauto@flow1.25" speedFactor="1.01" vaporized=""/>
    <tripinfo id="flow1.26" depart="67.40" departLane="A3B3_0" departPos="4.10" departSpeed="0.00" departDelay="41.40" arrival="152.90" arrivalLane="D3E3_0" arrivalPos="85.60" arrivalSpeed="13.94" duration="85.50" routeLength="381.50" waitingTime="19.70" waitingCount="2" stopTime="0.00" timeLoss="58.37" rerouteNo="0" devices="tripinfo_flow1.26" vType="vtypeauto@flow1.26" speedFactor="1.01" vaporized=""/>
    <tripinfo id="flow1.27" depart="70.00" departLane="A3B3_0" departPos="4.10" departSpeed="0.00" departDelay="43.00" arrival="154.10" arrivalLane="D3E3_0" arrivalPos="85.60" arrivalSpeed="13.99" duration="84.10" routeLength="381.50" waitingTime="20.30" waitingCount="2" stopTime="0.00" timeLoss="56.83" rerouteNo="0" devices="tripinfo_flow1.27" vType="vtypeauto@flow1.27" speedFactor="1.01" vaporized=""/>
    <tripinfo id="flow1.28" depart="72.60" departLane="A3B3_0" departPos="4.10" departSpeed="0.00" departDelay="44.60" arrival="155.30" arrivalLane="D3E3_0" arrivalPos="85.60" arrivalSpeed="13.88" duration="82.70" routeLength="381.50" waitingTime="22.90" waitingCount="2" stopTime="0.00" timeLoss="55.40" rerouteNo="0" devices="tripinfo_flow1.28" vType="vtypeauto@flow1.28" speedFactor="1.01" vaporized=""/>
    <tripinfo id="flow1.29" depart="75.20" departLane="A3B3_0" departPos="4.10" departSpeed="0.00" departDelay="46.20" arrival="156.60" arrivalLane="D3E3_0" arrivalPos="85.60" arrivalSpeed="13.95" duration="81.40" routeLength="381.50" waitingTime="24.30" waitingCount="2" stopTime="0.00" timeLoss="54.09" rerouteNo="0" devices="tripinfo_flow1.29" vType="vtypeauto@flow1.29" speedFactor="1.01" vaporized=""/>
    <tripinfo id="flow1.30" depart="77.80" departLane="A3B3_0" departPos="4.10" departSpeed="0.00" departDelay="47.80" arrival="157.80" arrivalLane="D3E3_0" arrivalPos="85.60" arrivalSpeed="13.91" duration="80.00" routeLength="381.50" waitingTime="22.70" waitingCount="2" stopTime="0.00" timeLoss="52.64" rerouteNo="0" devices="tripinfo_flow1.30" vType="vtypeauto@flow1.30" speedFactor="1.01" vaporized=""/>
    <tripinfo id="flow1.31" depart="81.10" departLane="A3B3_0" departPos="4.10" departSpeed="0.00" departDelay="50.10" arrival="159.10" arrivalLane="D3E3_0" arrivalPos="85.60" arrivalSpeed="13.93" duration="78.00" routeLength="381.50" waitingTime="21.30" waitingCount="2" stopTime="0.00" timeLoss="50.70" rerouteNo="0" devices="tripinfo_flow1.31" vType="vtypeauto@flow1.31" speedFactor="1.01" vaporized=""/>
    <tripinfo id="flow1.32" depart="99.50" departLane="A3B3_0" departPos="4.10" departSpeed="0.00" departDelay="67.50" arrival="160.90" arrivalLane="D3E3_0" arrivalPos="85.60" arrivalSpeed="12.48" duration="61.40" routeLength="381.50" waitingTime="9.20" waitingCount="1" stopTime="0.00" timeLoss="31.02" rerouteNo="0" devices="tripinfo_flow1.32" vType="vtypeauto" speedFactor="0.91" vaporized=""/>
    <tripinfo id="flow1.33" depart="102.10" departLane="A3B3_0" departPos="4.10" departSpeed="0.00" departDelay="69.10" arrival="162.30" arrivalLane="D3E3_0" arrivalPos="85.60" arrivalSpeed="14.72" duration="60.20" routeLength="381.50" waitingTime="3.90" waitingCount="1" stopTime="0.00" timeLoss="34.35" rerouteNo="0" devices="tripinfo_flow1.33" vType="vtypeauto" speedFactor="1.06" vaporized=""/>
    <tripinfo id="flow1.34" depart="104.70" departLane="A3B3_0" departPos="4.10" departSpeed="0.00" departDelay="70.70" arrival="163.80" arrivalLane="D3E3_0" arrivalPos="85.60" arrivalSpeed="13.17" duration="59.10" routeLength="381.50" waitingTime="1.70" waitingCount="1" stopTime="0.00" timeLoss="30.26" rerouteNo="0" devices="tripinfo_flow1.34" vType="vtypeauto" speedFactor="0.95" vaporized=""/>
    <tripinfo id="flow1.35" depart="107.30" departLane="A3B3_0" departPos="4.10" departSpeed="0.00" departDelay="72.30" arrival="165.30" arrivalLane="D3E3_0" arrivalPos="85.60" arrivalSpeed="14.07" duration="58.00" routeLength="381.50" waitingTime="0.00" waitingCount="0" stopTime="0.00" timeLoss="30.85" rerouteNo="0" devices="tripinfo_flow1.35" vType="vtypeauto" speedFactor="1.01" vaporized=""/>
    <tripinfo id="flow1.36" depart="109.90" departLane="A3B3_0" departPos="4.10" departSpeed="0.00" departDelay="73.90" arrival="166.80" arrivalLane="D3E3_0" arrivalPos="85.60" arrivalSpeed="13.32" duration="56.90" routeLength="381.50" waitingTime="0.00" waitingCount="0" stopTime="0.00" timeLoss="28.26" rerouteNo="0" devices="tripinfo_flow1.36" vType="vtypeauto" speedFactor="0.96" vaporized=""/>
    <tripinfo id="flow1.37" depart="112.50" departLane="A3B3_0" departPos="4.10" departSpeed="0.00" departDelay="75.50" arrival="168.20" arrivalLane="D3E3_0" arrivalPos="85.60" arrivalSpeed="15.21" duration="55.70" routeLength="381.50" waitingTime="0.00" waitingCount="0" stopTime="0.00" timeLoss="30.68" rerouteNo="0" devices="tripinfo_flow1.37" vType="vtypeauto" speedFactor="1.10" vaporized=""/>
    <tripinfo id="flow1.38" depart="115.00" departLane="A3B3_0" departPos="4.10" departSpeed="0.00" departDelay="77.00" arrival="170.00" arrivalLane="D3E3_0" arrivalPos="85.60" arrivalSpeed="12.69" duration="55.00" routeLength="381.50" waitingTime="0.00" waitingCount="0" stopTime="0.00" timeLoss="25.14" rerouteNo="0" devices="tripinfo_flow1.38" vType="vtypeauto" speedFactor="0.92" vaporized=""/>
    <tripinfo id="flow1.39" depart="117.60" departLane="A3B3_0" departPos="4.10" departSpeed="0.00" departDelay="78.60" arrival="171.40" arrivalLane="D3E3_0" arrivalPos="85.60" arrivalSpeed="13.69" duration="53.80" routeLength="381.50" waitingTime="0.00" waitingCount="0" stopTime="0.00" timeLoss="26.09" rerouteNo="0" devices="tripinfo_flow1.39" vType="vtypeauto" speedFactor="0.99" vaporized=""/>
    <tripinfo id="flow1.40" depart="120.20" departLane="A3B3_0" departPos="4.10" departSpeed="0.00" departDelay="80.20" arrival="172.80" arrivalLane="D3E3_0" arrivalPos="85.60" arrivalSpeed="15.25" duration="52.60" routeLength="381.50" waitingTime="0.00" waitingCount="0" stopTime="0.00" timeLoss="27.69" rerouteNo="0" devices="tripinfo_flow1.40" vType="vtypeauto" speedFactor="1.10" vaporized=""/>
    <tripinfo id="flow1.41" depart="122.80" departLane="A3B3_0" departPos="4.10" departSpeed="0.00" departDelay="81.80" arrival="174.20" arrivalLane="D3E3_0" arrivalPos="85.60" arrivalSpeed="14.66" duration="51.40" routeLength="381.50" waitingTime="0.00" waitingCount="0" stopTime="0.00" timeLoss="25.51" rerouteNo="0" devices="tripinfo_flow1.41" vType="vtypeauto" speedFactor="1.06" vaporized=""/>
    <tripinfo id="flow2.21" depart="54.60" departLane="A0A1_0" departPos="4.10" departSpeed="0.00" departDelay="33.60" arrival="176.50" arrivalLane="C3D3_0" arrivalPos="85.60" arrivalSpeed="11.94" duration="121.90" routeLength="568.99" waitingTime="57.50" waitingCount="3" stopTime="0.00" timeLoss="71.26" rerouteNo="0" devices="tripinfo_flow2.21" vType="vtypeauto" speedFactor="0.88" vaporized=""/>
</tripinfos>
