<?xml version="1.0" encoding="UTF-8"?>

<!-- generated on 2024-09-07 17:20:56 by Eclipse SUMO GUI Version 1.20.0
<configuration xmlns:xsi="http://www.w3.org/2001/XMLSchema-instance" xsi:noNamespaceSchemaLocation="http://sumo.dlr.de/xsd/sumoConfiguration.xsd">

    <input>
        <net-file value="sim_cfg_grid/grid.net.xml"/>
        <route-files value="sim_cfg_grid/grid.rou.xml"/>
    </input>

    <output>
        <tripinfo-output value="sim_cfg_grid/tripinfo2.xml"/>
    </output>

    <time>
        <begin value="0"/>
        <end value="500"/>
        <step-length value="0.1"/>
    </time>

    <traci_server>
        <remote-port value="49575"/>
    </traci_server>

    <gui_only>
        <gui-settings-file value="sim_cfg_grid/gui_settings.xml"/>
    </gui_only>

</configuration>
-->

<tripinfos xmlns:xsi="http://www.w3.org/2001/XMLSchema-instance" xsi:noNamespaceSchemaLocation="http://sumo.dlr.de/xsd/tripinfo_file.xsd">
    <tripinfo id="flow1.0" depart="0.00" departLane="A3B3_0" departPos="4.10" departSpeed="0.00" departDelay="0.00" arrival="46.30" arrivalLane="D3E3_0" arrivalPos="85.60" arrivalSpeed="12.93" duration="46.30" routeLength="381.50" waitingTime="5.90" waitingCount="1" stopTime="0.00" timeLoss="17.00" rerouteNo="0" devices="tripinfo_flow1.0" vType="vtypeauto" speedFactor="0.94" vaporized=""/>
    <tripinfo id="flow1.1" depart="2.60" departLane="A3B3_0" departPos="4.10" departSpeed="0.00" departDelay="1.60" arrival="48.60" arrivalLane="D3E3_0" arrivalPos="85.60" arrivalSpeed="11.47" duration="46.00" routeLength="381.50" waitingTime="0.00" waitingCount="0" stopTime="0.00" timeLoss="12.88" rerouteNo="0" devices="tripinfo_flow1.1" vType="vtypeauto" speedFactor="0.83" vaporized=""/>
    <tripinfo id="flow1.2" depart="5.20" departLane="A3B3_0" departPos="4.10" departSpeed="0.00" departDelay="3.20" arrival="50.10" arrivalLane="D3E3_0" arrivalPos="85.60" arrivalSpeed="11.80" duration="44.90" routeLength="381.50" waitingTime="0.00" waitingCount="0" stopTime="0.00" timeLoss="12.86" rerouteNo="0" devices="tripinfo_flow1.2" vType="vtypeauto" speedFactor="0.86" vaporized=""/>
    <tripinfo id="flow1.3" depart="7.80" departLane="A3B3_0" departPos="4.10" departSpeed="0.00" departDelay="4.80" arrival="51.60" arrivalLane="D3E3_0" arrivalPos="85.60" arrivalSpeed="14.42" duration="43.80" routeLength="381.50" waitingTime="0.00" waitingCount="0" stopTime="0.00" timeLoss="19.28" rerouteNo="0" devices="tripinfo_flow1.3" vType="vtypeauto" speedFactor="1.12" vaporized=""/>
    <tripinfo id="flow1.4" depart="10.40" departLane="A3B3_0" departPos="4.10" departSpeed="0.00" departDelay="6.40" arrival="53.10" arrivalLane="D3E3_0" arrivalPos="85.60" arrivalSpeed="12.99" duration="42.70" routeLength="381.50" waitingTime="0.00" waitingCount="0" stopTime="0.00" timeLoss="13.46" rerouteNo="0" devices="tripinfo_flow1.4" vType="vtypeauto" speedFactor="0.94" vaporized=""/>
    <tripinfo id="flow1.5" depart="13.00" departLane="A3B3_0" departPos="4.10" departSpeed="0.00" departDelay="8.00" arrival="54.50" arrivalLane="D3E3_0" arrivalPos="85.60" arrivalSpeed="14.02" duration="41.50" routeLength="381.50" waitingTime="0.00" waitingCount="0" stopTime="0.00" timeLoss="14.27" rerouteNo="0" devices="tripinfo_flow1.5" vType="vtypeauto" speedFactor="1.01" vaporized=""/>
    <tripinfo id="flow1.6" depart="15.60" departLane="A3B3_0" departPos="4.10" departSpeed="0.00" departDelay="9.60" arrival="56.30" arrivalLane="D3E3_0" arrivalPos="85.60" arrivalSpeed="12.02" duration="40.70" routeLength="381.50" waitingTime="0.00" waitingCount="0" stopTime="0.00" timeLoss="9.21" rerouteNo="0" devices="tripinfo_flow1.6" vType="vtypeauto" speedFactor="0.87" vaporized=""/>
    <tripinfo id="flow1.7" depart="18.20" departLane="A3B3_0" departPos="4.10" departSpeed="0.00" departDelay="11.20" arrival="57.80" arrivalLane="D3E3_0" arrivalPos="85.60" arrivalSpeed="12.90" duration="39.60" routeLength="381.50" waitingTime="0.00" waitingCount="0" stopTime="0.00" timeLoss="10.09" rerouteNo="0" devices="tripinfo_flow1.7" vType="vtypeauto" speedFactor="0.93" vaporized=""/>
    <tripinfo id="flow1.8" depart="20.80" departLane="A3B3_0" departPos="4.10" departSpeed="0.00" departDelay="12.80" arrival="59.20" arrivalLane="D3E3_0" arrivalPos="85.60" arrivalSpeed="15.19" duration="38.40" routeLength="381.50" waitingTime="0.00" waitingCount="0" stopTime="0.00" timeLoss="14.94" rerouteNo="0" devices="tripinfo_flow1.8" vType="vtypeauto" speedFactor="1.17" vaporized=""/>
    <tripinfo id="flow1.9" depart="23.30" departLane="A3B3_0" departPos="4.10" departSpeed="0.00" departDelay="14.30" arrival="60.50" arrivalLane="D3E3_0" arrivalPos="85.60" arrivalSpeed="16.29" duration="37.20" routeLength="381.50" waitingTime="0.00" waitingCount="0" stopTime="0.00" timeLoss="13.89" rerouteNo="0" devices="tripinfo_flow1.9" vType="vtypeauto" speedFactor="1.18" vaporized=""/>
    <tripinfo id="flow1.10" depart="25.90" departLane="A3B3_0" departPos="4.10" departSpeed="0.00" departDelay="15.90" arrival="62.20" arrivalLane="D3E3_0" arrivalPos="85.60" arrivalSpeed="13.25" duration="36.30" routeLength="381.50" waitingTime="0.00" waitingCount="0" stopTime="0.00" timeLoss="7.60" rerouteNo="0" devices="tripinfo_flow1.10" vType="vtypeauto" speedFactor="0.96" vaporized=""/>
    <tripinfo id="flow1.11" depart="28.60" departLane="A3B3_0" departPos="4.10" departSpeed="0.00" departDelay="17.60" arrival="63.60" arrivalLane="D3E3_0" arrivalPos="85.60" arrivalSpeed="15.11" duration="35.00" routeLength="381.50" waitingTime="0.00" waitingCount="0" stopTime="0.00" timeLoss="9.76" rerouteNo="0" devices="tripinfo_flow1.11" vType="vtypeauto" speedFactor="1.09" vaporized=""/>
    <tripinfo id="flow1.12" depart="31.20" departLane="A3B3_0" departPos="4.10" departSpeed="0.00" departDelay="19.20" arrival="66.60" arrivalLane="D3E3_0" arrivalPos="85.60" arrivalSpeed="11.69" duration="35.40" routeLength="381.50" waitingTime="0.00" waitingCount="0" stopTime="0.00" timeLoss="3.07" rerouteNo="0" devices="tripinfo_flow1.12" vType="vtypeauto" speedFactor="0.85" vaporized=""/>
    <tripinfo id="flow1.13" depart="33.80" departLane="A3B3_0" departPos="4.10" departSpeed="0.00" departDelay="20.80" arrival="79.50" arrivalLane="D3E3_0" arrivalPos="85.60" arrivalSpeed="15.13" duration="45.70" routeLength="381.50" waitingTime="8.60" waitingCount="1" stopTime="0.00" timeLoss="20.62" rerouteNo="0" devices="tripinfo_flow1.13" vType="vtypeauto" speedFactor="1.10" vaporized=""/>
    <tripinfo id="flow1.14" depart="36.40" departLane="A3B3_0" departPos="4.10" departSpeed="0.00" departDelay="22.40" arrival="80.90" arrivalLane="D3E3_0" arrivalPos="85.60" arrivalSpeed="15.79" duration="44.50" routeLength="381.50" waitingTime="4.40" waitingCount="1" stopTime="0.00" timeLoss="20.41" rerouteNo="0" devices="tripinfo_flow1.14" vType="vtypeauto" speedFactor="1.14" vaporized=""/>
    <tripinfo id="flow1.15" depart="39.00" departLane="A3B3_0" departPos="4.10" departSpeed="0.00" departDelay="24.00" arrival="82.30" arrivalLane="D3E3_0" arrivalPos="85.60" arrivalSpeed="15.47" duration="43.30" routeLength="381.50" waitingTime="2.60" waitingCount="1" stopTime="0.00" timeLoss="18.68" rerouteNo="0" devices="tripinfo_flow1.15" vType="vtypeauto" speedFactor="1.12" vaporized=""/>
    <tripinfo id="flow2.0" depart="0.00" departLane="A0A1_0" departPos="4.10" departSpeed="0.00" departDelay="0.00" arrival="91.90" arrivalLane="C3D3_0" arrivalPos="85.60" arrivalSpeed="9.02" duration="91.90" routeLength="568.99" waitingTime="25.30" waitingCount="3" stopTime="0.00" timeLoss="47.70" rerouteNo="0" devices="tripinfo_flow2.0" vType="vtypeauto" speedFactor="1.01" vaporized=""/>
    <tripinfo id="flow2.1" depart="2.60" departLane="A0A1_0" departPos="4.10" departSpeed="0.00" departDelay="1.60" arrival="93.40" arrivalLane="C3D3_0" arrivalPos="85.60" arrivalSpeed="11.03" duration="90.80" routeLength="568.99" waitingTime="18.80" waitingCount="2" stopTime="0.00" timeLoss="48.05" rerouteNo="0" devices="tripinfo_flow2.1" vType="vtypeauto" speedFactor="1.05" vaporized=""/>
    <tripinfo id="flow2.2" depart="5.30" departLane="A0A1_0" departPos="4.10" departSpeed="0.00" departDelay="3.30" arrival="94.80" arrivalLane="C3D3_0" arrivalPos="85.60" arrivalSpeed="12.64" duration="89.50" routeLength="568.99" waitingTime="14.70" waitingCount="2" stopTime="0.00" timeLoss="48.57" rerouteNo="0" devices="tripinfo_flow2.2" vType="vtypeauto" speedFactor="1.09" vaporized=""/>
    <tripinfo id="flow1.16" depart="41.60" departLane="A3B3_0" departPos="4.10" departSpeed="0.00" departDelay="25.60" arrival="95.30" arrivalLane="D3E3_0" arrivalPos="85.60" arrivalSpeed="12.19" duration="53.70" routeLength="381.50" waitingTime="7.70" waitingCount="1" stopTime="0.00" timeLoss="22.54" rerouteNo="0" devices="tripinfo_flow1.16" vType="vtypeauto" speedFactor="0.88" vaporized=""/>
    <tripinfo id="flow2.3" depart="8.00" departLane="A0A1_0" departPos="4.10" departSpeed="0.00" departDelay="5.00" arrival="96.20" arrivalLane="C3D3_0" arrivalPos="85.60" arrivalSpeed="13.67" duration="88.20" routeLength="568.99" waitingTime="11.60" waitingCount="2" stopTime="0.00" timeLoss="43.08" rerouteNo="0" devices="tripinfo_flow2.3" vType="vtypeauto" speedFactor="0.99" vaporized=""/>
    <tripinfo id="flow1.17" depart="44.20" departLane="A3B3_0" departPos="4.10" departSpeed="0.00" departDelay="27.20" arrival="96.70" arrivalLane="D3E3_0" arrivalPos="85.60" arrivalSpeed="14.17" duration="52.50" routeLength="381.50" waitingTime="3.30" waitingCount="1" stopTime="0.00" timeLoss="25.63" rerouteNo="0" devices="tripinfo_flow1.17" vType="vtypeauto" speedFactor="1.02" vaporized=""/>
    <tripinfo id="flow2.4" depart="10.60" departLane="A0A1_0" departPos="4.10" departSpeed="0.00" departDelay="6.60" arrival="97.60" arrivalLane="C3D3_0" arrivalPos="85.60" arrivalSpeed="12.96" duration="87.00" routeLength="568.99" waitingTime="9.30" waitingCount="2" stopTime="0.00" timeLoss="39.23" rerouteNo="0" devices="tripinfo_flow2.4" vType="vtypeauto" speedFactor="0.94" vaporized=""/>
    <tripinfo id="flow2.5" depart="13.20" departLane="A0A1_0" departPos="4.10" departSpeed="0.00" departDelay="8.20" arrival="99.00" arrivalLane="C3D3_0" arrivalPos="85.60" arrivalSpeed="13.44" duration="85.80" routeLength="568.99" waitingTime="7.20" waitingCount="2" stopTime="0.00" timeLoss="39.97" rerouteNo="0" devices="tripinfo_flow2.5" vType="vtypeauto" speedFactor="0.97" vaporized=""/>
    <tripinfo id="flow2.6" depart="15.80" departLane="A0A1_0" departPos="4.10" departSpeed="0.00" departDelay="9.80" arrival="101.10" arrivalLane="C3D3_0" arrivalPos="85.60" arrivalSpeed="12.66" duration="85.30" routeLength="568.99" waitingTime="5.20" waitingCount="2" stopTime="0.00" timeLoss="36.54" rerouteNo="0" devices="tripinfo_flow2.6" vType="vtypeauto" speedFactor="0.92" vaporized=""/>
    <tripinfo id="flow2.7" depart="18.40" departLane="A0A1_0" departPos="4.10" departSpeed="0.00" departDelay="11.40" arrival="102.50" arrivalLane="C3D3_0" arrivalPos="85.60" arrivalSpeed="15.34" duration="84.10" routeLength="568.99" waitingTime="3.30" waitingCount="2" stopTime="0.00" timeLoss="46.18" rerouteNo="0" devices="tripinfo_flow2.7" vType="vtypeauto" speedFactor="1.18" vaporized=""/>
    <tripinfo id="flow2.8" depart="21.00" departLane="A0A1_0" departPos="4.10" departSpeed="0.00" departDelay="13.00" arrival="104.60" arrivalLane="C3D3_0" arrivalPos="85.60" arrivalSpeed="13.75" duration="83.60" routeLength="568.99" waitingTime="0.20" waitingCount="2" stopTime="0.00" timeLoss="38.70" rerouteNo="0" devices="tripinfo_flow2.8" vType="vtypeauto" speedFactor="0.99" vaporized=""/>
    <tripinfo id="flow2.9" depart="23.50" departLane="A0A1_0" departPos="4.10" departSpeed="0.00" departDelay="14.50" arrival="106.20" arrivalLane="C3D3_0" arrivalPos="85.60" arrivalSpeed="15.21" duration="82.70" routeLength="568.99" waitingTime="0.00" waitingCount="0" stopTime="0.00" timeLoss="42.20" rerouteNo="0" devices="tripinfo_flow2.9" vType="vtypeauto" speedFactor="1.10" vaporized=""/>
    <tripinfo id="flow2.10" depart="26.10" departLane="A0A1_0" departPos="4.10" departSpeed="0.00" departDelay="16.10" arrival="108.20" arrivalLane="C3D3_0" arrivalPos="85.60" arrivalSpeed="15.14" duration="82.10" routeLength="568.99" waitingTime="0.00" waitingCount="0" stopTime="0.00" timeLoss="41.09" rerouteNo="0" devices="tripinfo_flow2.10" vType="vtypeauto" speedFactor="1.09" vaporized=""/>
    <tripinfo id="flow2.11" depart="28.70" departLane="A0A1_0" departPos="4.10" departSpeed="0.00" departDelay="17.70" arrival="110.80" arrivalLane="C3D3_0" arrivalPos="85.60" arrivalSpeed="13.84" duration="82.10" routeLength="568.99" waitingTime="0.00" waitingCount="0" stopTime="0.00" timeLoss="37.33" rerouteNo="0" devices="tripinfo_flow2.11" vType="vtypeauto" speedFactor="1.00" vaporized=""/>
    <tripinfo id="flow2.12" depart="31.30" departLane="A0A1_0" departPos="4.10" departSpeed="0.00" departDelay="19.30" arrival="114.10" arrivalLane="C3D3_0" arrivalPos="85.60" arrivalSpeed="11.80" duration="82.80" routeLength="568.99" waitingTime="0.00" waitingCount="0" stopTime="0.00" timeLoss="30.50" rerouteNo="0" devices="tripinfo_flow2.12" vType="vtypeauto" speedFactor="0.85" vaporized=""/>
    <tripinfo id="flow2.13" depart="33.90" departLane="A0A1_0" departPos="4.10" departSpeed="0.00" departDelay="20.90" arrival="115.60" arrivalLane="C3D3_0" arrivalPos="85.60" arrivalSpeed="13.89" duration="81.70" routeLength="568.99" waitingTime="7.90" waitingCount="2" stopTime="0.00" timeLoss="37.09" rerouteNo="0" devices="tripinfo_flow2.13" vType="vtypeauto" speedFactor="1.00" vaporized=""/>
    <tripinfo id="flow2.14" depart="36.50" departLane="A0A1_0" departPos="4.10" departSpeed="0.00" departDelay="22.50" arrival="117.20" arrivalLane="C3D3_0" arrivalPos="85.60" arrivalSpeed="14.18" duration="80.70" routeLength="568.99" waitingTime="3.90" waitingCount="1" stopTime="0.00" timeLoss="36.95" rerouteNo="0" devices="tripinfo_flow2.14" vType="vtypeauto" speedFactor="1.02" vaporized=""/>
    <tripinfo id="flow0.0" depart="0.00" departLane="B4B3_0" departPos="4.10" departSpeed="0.00" departDelay="0.00" arrival="125.60" arrivalLane="B3A3_0" arrivalPos="85.60" arrivalSpeed="14.67" duration="125.60" routeLength="580.90" waitingTime="58.30" waitingCount="3" stopTime="0.00" timeLoss="83.98" rerouteNo="0" devices="tripinfo_flow0.0" vType="vtypeauto" speedFactor="1.06" vaporized=""/>
    <tripinfo id="flow1.18" depart="46.80" departLane="A3B3_0" departPos="4.10" departSpeed="0.00" departDelay="28.80" arrival="143.40" arrivalLane="D3E3_0" arrivalPos="85.60" arrivalSpeed="14.56" duration="96.60" routeLength="381.50" waitingTime="42.50" waitingCount="4" stopTime="0.00" timeLoss="70.55" rerouteNo="0" devices="tripinfo_flow1.18" vType="vtypeauto" speedFactor="1.06" vaporized=""/>
    <tripinfo id="flow1.19" depart="49.40" departLane="A3B3_0" departPos="4.10" departSpeed="0.00" departDelay="30.40" arrival="145.00" arrivalLane="D3E3_0" arrivalPos="85.60" arrivalSpeed="13.55" duration="95.60" routeLength="381.50" waitingTime="40.00" waitingCount="2" stopTime="0.00" timeLoss="67.63" rerouteNo="0" devices="tripinfo_flow1.19" vType="vtypeauto" speedFactor="0.98" vaporized=""/>
    <tripinfo id="flow1.20" depart="52.00" departLane="A3B3_0" departPos="4.10" departSpeed="0.00" departDelay="32.00" arrival="146.50" arrivalLane="D3E3_0" arrivalPos="85.60" arrivalSpeed="13.74" duration="94.50" routeLength="381.50" waitingTime="32.90" waitingCount="2" stopTime="0.00" timeLoss="66.96" rerouteNo="0" devices="tripinfo_flow1.20" vType="vtypeauto" speedFactor="1.00" vaporized=""/>
    <tripinfo id="flow1.21" depart="54.60" departLane="A3B3_0" departPos="4.10" departSpeed="0.00" departDelay="33.60" arrival="148.00" arrivalLane="D3E3_0" arrivalPos="85.60" arrivalSpeed="13.54" duration="93.40" routeLength="381.50" waitingTime="29.20" waitingCount="2" stopTime="0.00" timeLoss="65.24" rerouteNo="0" devices="tripinfo_flow1.21" vType="vtypeauto" speedFactor="0.98" vaporized=""/>
    <tripinfo id="flow1.22" depart="57.20" departLane="A3B3_0" departPos="4.10" departSpeed="0.00" departDelay="35.20" arrival="149.50" arrivalLane="D3E3_0" arrivalPos="85.60" arrivalSpeed="14.12" duration="92.30" routeLength="381.50" waitingTime="25.80" waitingCount="1" stopTime="0.00" timeLoss="65.35" rerouteNo="0" devices="tripinfo_flow1.22" vType="vtypeauto" speedFactor="1.02" vaporized=""/>
    <tripinfo id="flow1.23" depart="59.80" departLane="A3B3_0" departPos="4.10" departSpeed="0.00" departDelay="36.80" arrival="151.20" arrivalLane="D3E3_0" arrivalPos="85.60" arrivalSpeed="12.68" duration="91.40" routeLength="381.50" waitingTime="24.30" waitingCount="1" stopTime="0.00" timeLoss="61.54" rerouteNo="0" devices="tripinfo_flow1.23" vType="vtypeauto" speedFactor="0.92" vaporized=""/>
    <tripinfo id="flow1.24" depart="62.30" departLane="A3B3_0" departPos="4.10" departSpeed="0.00" departDelay="38.30" arrival="152.80" arrivalLane="D3E3_0" arrivalPos="85.60" arrivalSpeed="12.48" duration="90.50" routeLength="381.50" waitingTime="22.90" waitingCount="1" stopTime="0.00" timeLoss="60.13" rerouteNo="0" devices="tripinfo_flow1.24" vType="vtypeauto" speedFactor="0.91" vaporized=""/>
    <tripinfo id="flow1.25" depart="65.00" departLane="A3B3_0" departPos="4.10" departSpeed="0.00" departDelay="40.00" arrival="154.30" arrivalLane="D3E3_0" arrivalPos="85.60" arrivalSpeed="13.25" duration="89.30" routeLength="381.50" waitingTime="21.50" waitingCount="1" stopTime="0.00" timeLoss="60.51" rerouteNo="0" devices="tripinfo_flow1.25" vType="vtypeauto" speedFactor="0.96" vaporized=""/>
    <tripinfo id="flow1.26" depart="67.60" departLane="A3B3_0" departPos="4.10" departSpeed="0.00" departDelay="41.60" arrival="155.70" arrivalLane="D3E3_0" arrivalPos="85.60" arrivalSpeed="14.87" duration="88.10" routeLength="381.50" waitingTime="20.20" waitingCount="1" stopTime="0.00" timeLoss="62.42" rerouteNo="0" devices="tripinfo_flow1.26" vType="vtypeauto" speedFactor="1.07" vaporized=""/>
    <tripinfo id="flow1.27" depart="70.20" departLane="A3B3_0" departPos="4.10" departSpeed="0.00" departDelay="43.20" arrival="157.20" arrivalLane="D3E3_0" arrivalPos="85.60" arrivalSpeed="13.22" duration="87.00" routeLength="381.50" waitingTime="18.90" waitingCount="1" stopTime="0.00" timeLoss="58.38" rerouteNo="0" devices="tripinfo_flow1.27" vType="vtypeauto" speedFactor="0.96" vaporized=""/>
    <tripinfo id="flow3.0" depart="0.00" departLane="C3D3_0" departPos="4.10" departSpeed="0.00" departDelay="0.00" arrival="158.60" arrivalLane="B3B4_0" arrivalPos="85.60" arrivalSpeed="14.92" duration="158.60" routeLength="565.39" waitingTime="103.30" waitingCount="2" stopTime="0.00" timeLoss="119.07" rerouteNo="0" devices="tripinfo_flow3.0" vType="vtypeauto" speedFactor="1.08" vaporized=""/>
    <tripinfo id="flow1.28" depart="72.80" departLane="A3B3_0" departPos="4.10" departSpeed="0.00" departDelay="44.80" arrival="158.70" arrivalLane="D3E3_0" arrivalPos="85.60" arrivalSpeed="13.93" duration="85.90" routeLength="381.50" waitingTime="17.90" waitingCount="1" stopTime="0.00" timeLoss="58.63" rerouteNo="0" devices="tripinfo_flow1.28" vType="vtypeauto" speedFactor="1.01" vaporized=""/>
    <tripinfo id="flow1.29" depart="75.40" departLane="A3B3_0" departPos="4.10" departSpeed="0.00" departDelay="46.40" arrival="160.20" arrivalLane="D3E3_0" arrivalPos="85.60" arrivalSpeed="13.93" duration="84.80" routeLength="381.50" waitingTime="17.00" waitingCount="1" stopTime="0.00" timeLoss="57.37" rerouteNo="0" devices="tripinfo_flow1.29" vType="vtypeauto" speedFactor="1.00" vaporized=""/>
    <tripinfo id="flow3.1" depart="2.60" departLane="C3D3_0" departPos="4.10" departSpeed="0.00" departDelay="1.60" arrival="160.80" arrivalLane="B3B4_0" arrivalPos="85.60" arrivalSpeed="12.23" duration="158.20" routeLength="565.39" waitingTime="84.40" waitingCount="3" stopTime="0.00" timeLoss="109.75" rerouteNo="0" devices="tripinfo_flow3.1" vType="vtypeauto" speedFactor="0.89" vaporized=""/>
    <tripinfo id="flow1.30" depart="78.70" departLane="A3B3_0" departPos="4.10" departSpeed="0.00" departDelay="48.70" arrival="161.60" arrivalLane="D3E3_0" arrivalPos="85.60" arrivalSpeed="15.30" duration="82.90" routeLength="381.50" waitingTime="16.20" waitingCount="1" stopTime="0.00" timeLoss="57.92" rerouteNo="0" devices="tripinfo_flow1.30" vType="vtypeauto" speedFactor="1.10" vaporized=""/>
    <tripinfo id="flow3.2" depart="5.10" departLane="C3D3_0" departPos="4.10" departSpeed="0.00" departDelay="3.10" arrival="162.20" arrivalLane="B3B4_0" arrivalPos="85.60" arrivalSpeed="14.19" duration="157.10" routeLength="565.39" waitingTime="76.40" waitingCount="3" stopTime="0.00" timeLoss="115.24" rerouteNo="0" devices="tripinfo_flow3.2" vType="vtypeauto" speedFactor="1.03" vaporized=""/>
    <tripinfo id="flow1.31" depart="104.80" departLane="A3B3_0" departPos="4.10" departSpeed="0.00" departDelay="73.80" arrival="162.90" arrivalLane="D3E3_0" arrivalPos="85.60" arrivalSpeed="15.91" duration="58.10" routeLength="381.50" waitingTime="0.00" waitingCount="0" stopTime="0.00" timeLoss="34.23" rerouteNo="0" devices="tripinfo_flow1.31" vType="vtypeauto" speedFactor="1.15" vaporized=""/>
    <tripinfo id="flow3.3" depart="7.70" departLane="C3D3_0" departPos="4.10" departSpeed="0.00" departDelay="4.70" arrival="163.80" arrivalLane="B3B4_0" arrivalPos="85.60" arrivalSpeed="12.78" duration="156.10" routeLength="565.39" waitingTime="70.60" waitingCount="2" stopTime="0.00" timeLoss="109.75" rerouteNo="0" devices="tripinfo_flow3.3" vType="vtypeauto" speedFactor="0.93" vaporized=""/>
    <tripinfo id="flow1.32" depart="107.50" departLane="A3B3_0" departPos="4.10" departSpeed="0.00" departDelay="75.50" arrival="164.50" arrivalLane="D3E3_0" arrivalPos="85.60" arrivalSpeed="13.91" duration="57.00" routeLength="381.50" waitingTime="0.00" waitingCount="0" stopTime="0.00" timeLoss="29.75" rerouteNo="0" devices="tripinfo_flow1.32" vType="vtypeauto" speedFactor="1.01" vaporized=""/>
    <tripinfo id="flow3.4" depart="10.30" departLane="C3D3_0" departPos="4.10" departSpeed="0.00" departDelay="6.30" arrival="165.20" arrivalLane="B3B4_0" arrivalPos="85.60" arrivalSpeed="15.21" duration="154.90" routeLength="565.39" waitingTime="68.20" waitingCount="2" stopTime="0.00" timeLoss="117.82" rerouteNo="0" devices="tripinfo_flow3.4" vType="vtypeauto" speedFactor="1.16" vaporized=""/>
    <tripinfo id="flow1.33" depart="110.10" departLane="A3B3_0" departPos="4.10" departSpeed="0.00" departDelay="77.10" arrival="166.00" arrivalLane="D3E3_0" arrivalPos="85.60" arrivalSpeed="14.35" duration="55.90" routeLength="381.50" waitingTime="0.00" waitingCount="0" stopTime="0.00" timeLoss="29.37" rerouteNo="0" devices="tripinfo_flow1.33" vType="vtypeauto" speedFactor="1.04" vaporized=""/>
    <tripinfo id="flow3.5" depart="12.90" departLane="C3D3_0" departPos="4.10" departSpeed="0.00" departDelay="7.90" arrival="166.90" arrivalLane="B3B4_0" arrivalPos="85.60" arrivalSpeed="12.25" duration="154.00" routeLength="565.39" waitingTime="66.00" waitingCount="2" stopTime="0.00" timeLoss="105.79" rerouteNo="0" devices="tripinfo_flow3.5" vType="vtypeauto" speedFactor="0.89" vaporized=""/>
    <tripinfo id="flow1.34" depart="112.80" departLane="A3B3_0" departPos="4.10" departSpeed="0.00" departDelay="78.80" arrival="167.50" arrivalLane="D3E3_0" arrivalPos="85.60" arrivalSpeed="14.05" duration="54.70" routeLength="381.50" waitingTime="0.00" waitingCount="0" stopTime="0.00" timeLoss="27.58" rerouteNo="0" devices="tripinfo_flow1.34" vType="vtypeauto" speedFactor="1.02" vaporized=""/>
    <tripinfo id="flow3.6" depart="15.50" departLane="C3D3_0" departPos="4.10" departSpeed="0.00" departDelay="9.50" arrival="168.40" arrivalLane="B3B4_0" arrivalPos="85.60" arrivalSpeed="13.12" duration="152.90" routeLength="565.39" waitingTime="63.80" waitingCount="2" stopTime="0.00" timeLoss="107.63" rerouteNo="0" devices="tripinfo_flow3.6" vType="vtypeauto" speedFactor="0.95" vaporized=""/>
    <tripinfo id="flow1.35" depart="115.40" departLane="A3B3_0" departPos="4.10" departSpeed="0.00" departDelay="80.40" arrival="168.90" arrivalLane="D3E3_0" arrivalPos="85.60" arrivalSpeed="16.12" duration="53.50" routeLength="381.50" waitingTime="0.00" waitingCount="0" stopTime="0.00" timeLoss="29.83" rerouteNo="0" devices="tripinfo_flow1.35" vType="vtypeauto" speedFactor="1.16" vaporized=""/>
    <tripinfo id="flow3.7" depart="18.10" departLane="C3D3_0" departPos="4.10" departSpeed="0.00" departDelay="11.10" arrival="169.80" arrivalLane="B3B4_0" arrivalPos="85.60" arrivalSpeed="15.54" duration="151.70" routeLength="565.39" waitingTime="62.10" waitingCount="2" stopTime="0.00" timeLoss="114.38" rerouteNo="0" devices="tripinfo_flow3.7" vType="vtypeauto" speedFactor="1.15" vaporized=""/>
    <tripinfo id="flow1.36" depart="117.90" departLane="A3B3_0" departPos="4.10" departSpeed="0.00" departDelay="81.90" arrival="170.20" arrivalLane="D3E3_0" arrivalPos="85.60" arrivalSpeed="15.81" duration="52.30" routeLength="381.50" waitingTime="0.00" waitingCount="0" stopTime="0.00" timeLoss="28.20" rerouteNo="0" devices="tripinfo_flow1.36" vType="vtypeauto" speedFactor="1.14" vaporized=""/>
    <tripinfo id="flow3.8" depart="20.70" departLane="C3D3_0" departPos="4.10" departSpeed="0.00" departDelay="12.70" arrival="171.20" arrivalLane="B3B4_0" arrivalPos="85.60" arrivalSpeed="14.09" duration="150.50" routeLength="565.39" waitingTime="60.10" waitingCount="2" stopTime="0.00" timeLoss="108.43" rerouteNo="0" devices="tripinfo_flow3.8" vType="vtypeauto" speedFactor="1.02" vaporized=""/>
    <tripinfo id="flow1.37" depart="120.50" departLane="A3B3_0" departPos="4.10" departSpeed="0.00" departDelay="83.50" arrival="171.80" arrivalLane="D3E3_0" arrivalPos="85.60" arrivalSpeed="14.34" duration="51.30" routeLength="381.50" waitingTime="0.00" waitingCount="0" stopTime="0.00" timeLoss="24.87" rerouteNo="0" devices="tripinfo_flow1.37" vType="vtypeauto" speedFactor="1.04" vaporized=""/>
    <tripinfo id="flow3.9" depart="23.30" departLane="C3D3_0" departPos="4.10" departSpeed="0.00" departDelay="14.30" arrival="173.00" arrivalLane="B3B4_0" arrivalPos="85.60" arrivalSpeed="12.40" duration="149.70" routeLength="565.39" waitingTime="58.50" waitingCount="2" stopTime="0.00" timeLoss="101.94" rerouteNo="0" devices="tripinfo_flow3.9" vType="vtypeauto" speedFactor="0.90" vaporized=""/>
    <tripinfo id="flow1.38" depart="123.10" departLane="A3B3_0" departPos="4.10" departSpeed="0.00" departDelay="85.10" arrival="173.90" arrivalLane="D3E3_0" arrivalPos="85.60" arrivalSpeed="12.77" duration="50.80" routeLength="381.50" waitingTime="0.00" waitingCount="0" stopTime="0.00" timeLoss="21.15" rerouteNo="0" devices="tripinfo_flow1.38" vType="vtypeauto" speedFactor="0.93" vaporized=""/>
    <tripinfo id="flow3.10" depart="25.80" departLane="C3D3_0" departPos="4.10" departSpeed="0.00" departDelay="15.80" arrival="174.40" arrivalLane="B3B4_0" arrivalPos="85.60" arrivalSpeed="14.35" duration="148.60" routeLength="565.39" waitingTime="57.00" waitingCount="2" stopTime="0.00" timeLoss="107.25" rerouteNo="0" devices="tripinfo_flow3.10" vType="vtypeauto" speedFactor="1.04" vaporized=""/>
    <tripinfo id="flow1.39" depart="125.70" departLane="A3B3_0" departPos="4.10" departSpeed="0.00" departDelay="86.70" arrival="175.30" arrivalLane="D3E3_0" arrivalPos="85.60" arrivalSpeed="14.89" duration="49.60" routeLength="381.50" waitingTime="0.00" waitingCount="0" stopTime="0.00" timeLoss="24.14" rerouteNo="0" devices="tripinfo_flow1.39" vType="vtypeauto" speedFactor="1.08" vaporized=""/>
    <tripinfo id="flow3.11" depart="56.80" departLane="C3D3_0" departPos="4.10" departSpeed="0.00" departDelay="45.80" arrival="176.10" arrivalLane="B3B4_0" arrivalPos="85.60" arrivalSpeed="12.46" duration="119.30" routeLength="565.39" waitingTime="43.20" waitingCount="3" stopTime="0.00" timeLoss="71.58" rerouteNo="0" devices="tripinfo_flow3.11" vType="vtypeauto" speedFactor="0.90" vaporized=""/>
    <tripinfo id="flow1.40" depart="128.30" departLane="A3B3_0" departPos="4.10" departSpeed="0.00" departDelay="88.30" arrival="176.70" arrivalLane="D3E3_0" arrivalPos="85.60" arrivalSpeed="14.92" duration="48.40" routeLength="381.50" waitingTime="0.00" waitingCount="0" stopTime="0.00" timeLoss="22.90" rerouteNo="0" devices="tripinfo_flow1.40" vType="vtypeauto" speedFactor="1.08" vaporized=""/>
    <tripinfo id="flow2.15" depart="39.10" departLane="A0A1_0" departPos="4.10" departSpeed="0.00" departDelay="24.10" arrival="177.40" arrivalLane="C3D3_0" arrivalPos="85.60" arrivalSpeed="10.48" duration="138.30" routeLength="568.99" waitingTime="64.70" waitingCount="3" stopTime="0.00" timeLoss="94.28" rerouteNo="0" devices="tripinfo_flow2.15" vType="vtypeauto" speedFactor="1.02" vaporized=""/>
    <tripinfo id="flow3.12" depart="59.40" departLane="C3D3_0" departPos="4.10" departSpeed="0.00" departDelay="47.40" arrival="177.50" arrivalLane="B3B4_0" arrivalPos="85.60" arrivalSpeed="15.08" duration="118.10" routeLength="565.39" waitingTime="31.10" waitingCount="2" stopTime="0.00" timeLoss="81.38" rerouteNo="0" devices="tripinfo_flow3.12" vType="vtypeauto" speedFactor="1.17" vaporized=""/>
    <tripinfo id="flow2.16" depart="41.70" departLane="A0A1_0" departPos="4.10" departSpeed="0.00" departDelay="25.70" arrival="178.90" arrivalLane="C3D3_0" arrivalPos="85.60" arrivalSpeed="12.53" duration="137.20" routeLength="568.99" waitingTime="54.20" waitingCount="2" stopTime="0.00" timeLoss="87.87" rerouteNo="0" devices="tripinfo_flow2.16" vType="vtypeauto" speedFactor="0.91" vaporized=""/>
    <tripinfo id="flow3.13" depart="62.00" departLane="C3D3_0" departPos="4.10" departSpeed="0.00" departDelay="49.00" arrival="179.00" arrivalLane="B3B4_0" arrivalPos="85.60" arrivalSpeed="13.76" duration="117.00" routeLength="565.39" waitingTime="27.30" waitingCount="2" stopTime="0.00" timeLoss="73.85" rerouteNo="0" devices="tripinfo_flow3.13" vType="vtypeauto" speedFactor="1.00" vaporized=""/>