<?xml version="1.0" encoding="UTF-8"?>

<!-- generated on 2024-10-24 12:43:17 by Eclipse SUMO sumo Version 1.20.0
<configuration xmlns:xsi="http://www.w3.org/2001/XMLSchema-instance" xsi:noNamespaceSchemaLocation="http://sumo.dlr.de/xsd/sumoConfiguration.xsd">

    <input>
        <net-file value="sim_cfg_2_lanes/4way.net.xml"/>
        <route-files value="sim_cfg_2_lanes/4way.rou.xml"/>
    </input>

    <output>
        <tripinfo-output value="sim_cfg_2_lanes/tripinfo2.xml"/>
    </output>

    <time>
        <begin value="0"/>
        <end value="500"/>
        <step-length value="0.1"/>
    </time>

    <traci_server>
        <remote-port value="49492"/>
    </traci_server>

    <gui_only>
        <gui-settings-file value="sim_cfg_2_lanes/gui_settings.xml"/>
    </gui_only>

</configuration>
-->

<tripinfos xmlns:xsi="http://www.w3.org/2001/XMLSchema-instance" xsi:noNamespaceSchemaLocation="http://sumo.dlr.de/xsd/tripinfo_file.xsd">
    <tripinfo id="flow1.0" depart="2.70" departLane="end1_junction_0" departPos="4.10" departSpeed="0.00" departDelay="2.70" arrival="40.40" arrivalLane="junction_end3_1" arrivalPos="489.60" arrivalSpeed="35.97" duration="37.70" routeLength="995.90" waitingTime="0.00" waitingCount="0" stopTime="0.00" timeLoss="9.98" rerouteNo="0" devices="tripinfo_flow1.0" vType="vtypeauto" speedFactor="0.94" vaporized=""/>
    <tripinfo id="flow7.0" depart="2.80" departLane="end3_junction_0" departPos="4.10" departSpeed="0.00" departDelay="2.80" arrival="41.00" arrivalLane="junction_end1_1" arrivalPos="489.60" arrivalSpeed="35.40" duration="38.20" routeLength="995.90" waitingTime="0.00" waitingCount="0" stopTime="0.00" timeLoss="10.05" rerouteNo="0" devices="tripinfo_flow7.0" vType="vtypeauto" speedFactor="0.89" vaporized=""/>
    <tripinfo id="flow6.0" depart="0.00" departLane="end3_junction_0" departPos="4.10" departSpeed="0.00" departDelay="0.00" arrival="45.60" arrivalLane="junction_end2_0" arrivalPos="489.60" arrivalSpeed="35.95" duration="45.60" routeLength="984.13" waitingTime="0.00" waitingCount="0" stopTime="0.00" timeLoss="17.21" rerouteNo="0" devices="tripinfo_flow6.0" vType="vtypeauto" speedFactor="1.05" vaporized=""/>
    <tripinfo id="flow0.0" depart="0.00" departLane="end1_junction_0" departPos="4.10" departSpeed="0.00" departDelay="0.00" arrival="45.70" arrivalLane="junction_end4_0" arrivalPos="489.60" arrivalSpeed="35.97" duration="45.70" routeLength="984.13" waitingTime="0.00" waitingCount="0" stopTime="0.00" timeLoss="17.26" rerouteNo="0" devices="tripinfo_flow0.0" vType="vtypeauto" speedFactor="1.06" vaporized=""/>
    <tripinfo id="flow0.1" depart="5.60" departLane="end1_junction_0" departPos="4.10" departSpeed="0.00" departDelay="4.60" arrival="51.40" arrivalLane="junction_end4_0" arrivalPos="489.60" arrivalSpeed="35.93" duration="45.80" routeLength="984.13" waitingTime="0.00" waitingCount="0" stopTime="0.00" timeLoss="17.25" rerouteNo="0" devices="tripinfo_flow0.1" vType="vtypeauto" speedFactor="1.05" vaporized=""/>
    <tripinfo id="flow6.1" depart="5.70" departLane="end3_junction_0" departPos="4.10" departSpeed="0.00" departDelay="4.70" arrival="52.20" arrivalLane="junction_end2_0" arrivalPos="489.60" arrivalSpeed="35.89" duration="46.50" routeLength="984.13" waitingTime="0.00" waitingCount="0" stopTime="0.00" timeLoss="17.97" rerouteNo="0" devices="tripinfo_flow6.1" vType="vtypeauto" speedFactor="0.94" vaporized=""/>
    <tripinfo id="flow6.2" depart="11.40" departLane="end3_junction_0" departPos="4.10" departSpeed="0.00" departDelay="9.40" arrival="57.70" arrivalLane="junction_end2_0" arrivalPos="489.60" arrivalSpeed="35.89" duration="46.30" routeLength="984.13" waitingTime="0.00" waitingCount="0" stopTime="0.00" timeLoss="18.06" rerouteNo="0" devices="tripinfo_flow6.2" vType="vtypeauto" speedFactor="1.18" vaporized=""/>
    <tripinfo id="flow1.1" depart="8.30" departLane="end1_junction_0" departPos="4.10" departSpeed="0.00" departDelay="7.30" arrival="58.90" arrivalLane="junction_end3_0" arrivalPos="489.60" arrivalSpeed="35.93" duration="50.60" routeLength="995.90" waitingTime="1.30" waitingCount="1" stopTime="0.00" timeLoss="22.91" rerouteNo="0" devices="tripinfo_flow1.1" vType="vtypeauto" speedFactor="1.12" vaporized=""/>
    <tripinfo id="flow7.1" depart="8.50" departLane="end3_junction_0" departPos="4.10" departSpeed="0.00" departDelay="7.50" arrival="61.40" arrivalLane="junction_end1_0" arrivalPos="489.60" arrivalSpeed="35.89" duration="52.90" routeLength="995.90" waitingTime="3.60" waitingCount="1" stopTime="0.00" timeLoss="25.23" rerouteNo="0" devices="tripinfo_flow7.1" vType="vtypeauto" speedFactor="1.16" vaporized=""/>
    <tripinfo id="flow0.2" depart="11.20" departLane="end1_junction_0" departPos="4.10" departSpeed="0.00" departDelay="9.20" arrival="61.70" arrivalLane="junction_end4_0" arrivalPos="489.60" arrivalSpeed="32.97" duration="50.50" routeLength="984.13" waitingTime="0.00" waitingCount="0" stopTime="0.00" timeLoss="19.22" rerouteNo="0" devices="tripinfo_flow0.2" vType="vtypeauto" speedFactor="0.83" vaporized=""/>
    <tripinfo id="flow6.3" depart="17.10" departLane="end3_junction_0" departPos="4.10" departSpeed="0.00" departDelay="14.10" arrival="64.40" arrivalLane="junction_end2_0" arrivalPos="489.60" arrivalSpeed="35.91" duration="47.30" routeLength="984.13" waitingTime="0.00" waitingCount="0" stopTime="0.00" timeLoss="18.99" rerouteNo="0" devices="tripinfo_flow6.3" vType="vtypeauto" speedFactor="1.09" vaporized=""/>
    <tripinfo id="flow0.3" depart="16.90" departLane="end1_junction_0" departPos="4.10" departSpeed="0.00" departDelay="13.90" arrival="65.20" arrivalLane="junction_end4_0" arrivalPos="489.60" arrivalSpeed="35.97" duration="48.30" routeLength="984.13" waitingTime="0.00" waitingCount="0" stopTime="0.00" timeLoss="19.75" rerouteNo="0" devices="tripinfo_flow0.3" vType="vtypeauto" speedFactor="0.97" vaporized=""/>
    <tripinfo id="flow7.2" depart="14.20" departLane="end3_junction_0" departPos="4.10" departSpeed="0.00" departDelay="12.20" arrival="66.60" arrivalLane="junction_end1_0" arrivalPos="489.60" arrivalSpeed="36.00" duration="52.40" routeLength="995.90" waitingTime="0.00" waitingCount="0" stopTime="0.00" timeLoss="24.72" rerouteNo="0" devices="tripinfo_flow7.2" vType="vtypeauto" speedFactor="1.15" vaporized=""/>
    <tripinfo id="flow1.2" depart="14.00" departLane="end1_junction_0" departPos="4.10" departSpeed="0.00" departDelay="12.00" arrival="67.20" arrivalLane="junction_end3_0" arrivalPos="489.60" arrivalSpeed="34.89" duration="53.20" routeLength="995.90" waitingTime="0.00" waitingCount="0" stopTime="0.00" timeLoss="24.66" rerouteNo="0" devices="tripinfo_flow1.2" vType="vtypeauto" speedFactor="0.87" vaporized=""/>
    <tripinfo id="flow6.4" depart="22.80" departLane="end3_junction_0" departPos="4.10" departSpeed="0.00" departDelay="18.80" arrival="71.10" arrivalLane="junction_end2_0" arrivalPos="489.60" arrivalSpeed="35.88" duration="48.30" routeLength="984.13" waitingTime="0.00" waitingCount="0" stopTime="0.00" timeLoss="19.89" rerouteNo="0" devices="tripinfo_flow6.4" vType="vtypeauto" speedFactor="1.00" vaporized=""/>
    <tripinfo id="flow0.4" depart="22.50" departLane="end1_junction_0" departPos="4.10" departSpeed="0.00" departDelay="18.50" arrival="72.10" arrivalLane="junction_end4_0" arrivalPos="489.60" arrivalSpeed="35.06" duration="49.60" routeLength="984.13" waitingTime="0.00" waitingCount="0" stopTime="0.00" timeLoss="20.16" rerouteNo="0" devices="tripinfo_flow0.4" vType="vtypeauto" speedFactor="0.88" vaporized=""/>
    <tripinfo id="flow8.0" depart="5.60" departLane="end3_junction_0" departPos="4.10" departSpeed="0.00" departDelay="5.60" arrival="73.40" arrivalLane="junction_end4_1" arrivalPos="489.60" arrivalSpeed="35.93" duration="67.80" routeLength="994.45" waitingTime="19.20" waitingCount="1" stopTime="0.00" timeLoss="38.45" rerouteNo="0" devices="tripinfo_flow8.0" vType="vtypeauto" speedFactor="0.94" vaporized=""/>
    <tripinfo id="flow2.0" depart="5.50" departLane="end1_junction_0" departPos="4.10" departSpeed="0.00" departDelay="5.50" arrival="73.50" arrivalLane="junction_end2_1" arrivalPos="489.60" arrivalSpeed="35.91" duration="68.00" routeLength="994.45" waitingTime="18.80" waitingCount="1" stopTime="0.00" timeLoss="38.81" rerouteNo="0" devices="tripinfo_flow2.0" vType="vtypeauto" speedFactor="1.01" vaporized=""/>
    <tripinfo id="flow3.0" depart="0.00" departLane="end2_junction_0" departPos="4.10" departSpeed="0.00" departDelay="0.00" arrival="81.10" arrivalLane="junction_end1_0" arrivalPos="489.60" arrivalSpeed="35.92" duration="81.10" routeLength="984.13" waitingTime="32.90" waitingCount="1" stopTime="0.00" timeLoss="52.70" rerouteNo="0" devices="tripinfo_flow3.0" vType="vtypeauto" speedFactor="1.08" vaporized=""/>
    <tripinfo id="flow4.0" depart="2.70" departLane="end2_junction_0" departPos="4.10" departSpeed="0.00" departDelay="2.70" arrival="81.50" arrivalLane="junction_end4_1" arrivalPos="489.60" arrivalSpeed="35.93" duration="78.80" routeLength="995.90" waitingTime="29.70" waitingCount="1" stopTime="0.00" timeLoss="51.11" rerouteNo="0" devices="tripinfo_flow4.0" vType="vtypeauto" speedFactor="1.03" vaporized=""/>
    <tripinfo id="flow10.0" depart="2.80" departLane="end4_junction_0" departPos="4.10" departSpeed="0.00" departDelay="2.80" arrival="81.50" arrivalLane="junction_end2_1" arrivalPos="489.60" arrivalSpeed="35.95" duration="78.70" routeLength="995.90" waitingTime="29.80" waitingCount="1" stopTime="0.00" timeLoss="50.99" rerouteNo="0" devices="tripinfo_flow10.0" vType="vtypeauto" speedFactor="1.09" vaporized=""/>
    <tripinfo id="flow9.0" depart="0.00" departLane="end4_junction_0" departPos="4.10" departSpeed="0.00" departDelay="0.00" arrival="82.00" arrivalLane="junction_end3_0" arrivalPos="489.60" arrivalSpeed="34.20" duration="82.00" routeLength="984.13" waitingTime="32.70" waitingCount="1" stopTime="0.00" timeLoss="51.87" rerouteNo="0" devices="tripinfo_flow9.0" vType="vtypeauto" speedFactor="0.86" vaporized=""/>
    <tripinfo id="flow9.1" depart="5.70" departLane="end4_junction_0" departPos="4.10" departSpeed="0.00" departDelay="4.70" arrival="83.20" arrivalLane="junction_end3_0" arrivalPos="489.60" arrivalSpeed="35.97" duration="77.50" routeLength="984.13" waitingTime="22.90" waitingCount="1" stopTime="0.00" timeLoss="49.09" rerouteNo="0" devices="tripinfo_flow9.1" vType="vtypeauto" speedFactor="1.01" vaporized=""/>
    <tripinfo id="flow3.1" depart="5.60" departLane="end2_junction_0" departPos="4.10" departSpeed="0.00" departDelay="4.60" arrival="83.30" arrivalLane="junction_end1_0" arrivalPos="489.60" arrivalSpeed="35.92" duration="77.70" routeLength="984.13" waitingTime="21.50" waitingCount="1" stopTime="0.00" timeLoss="49.09" rerouteNo="0" devices="tripinfo_flow3.1" vType="vtypeauto" speedFactor="0.93" vaporized=""/>
    <tripinfo id="flow9.2" depart="11.40" departLane="end4_junction_0" departPos="4.10" departSpeed="0.00" departDelay="9.40" arrival="84.60" arrivalLane="junction_end3_0" arrivalPos="489.60" arrivalSpeed="35.90" duration="73.20" routeLength="984.13" waitingTime="17.20" waitingCount="1" stopTime="0.00" timeLoss="44.84" rerouteNo="0" devices="tripinfo_flow9.2" vType="vtypeauto" speedFactor="1.17" vaporized=""/>
    <tripinfo id="flow3.2" depart="11.10" departLane="end2_junction_0" departPos="4.10" departSpeed="0.00" departDelay="9.10" arrival="85.50" arrivalLane="junction_end1_0" arrivalPos="489.60" arrivalSpeed="35.93" duration="74.40" routeLength="984.13" waitingTime="17.40" waitingCount="1" stopTime="0.00" timeLoss="45.80" rerouteNo="0" devices="tripinfo_flow3.2" vType="vtypeauto" speedFactor="0.95" vaporized=""/>
    <tripinfo id="flow9.3" depart="17.00" departLane="end4_junction_0" departPos="4.10" departSpeed="0.00" departDelay="14.00" arrival="86.90" arrivalLane="junction_end3_0" arrivalPos="489.60" arrivalSpeed="35.90" duration="69.90" routeLength="984.13" waitingTime="12.40" waitingCount="1" stopTime="0.00" timeLoss="41.51" rerouteNo="0" devices="tripinfo_flow9.3" vType="vtypeauto" speedFactor="1.09" vaporized=""/>
    <tripinfo id="flow3.3" depart="16.80" departLane="end2_junction_0" departPos="4.10" departSpeed="0.00" departDelay="13.80" arrival="87.90" arrivalLane="junction_end1_0" arrivalPos="489.60" arrivalSpeed="35.92" duration="71.10" routeLength="984.13" waitingTime="12.20" waitingCount="1" stopTime="0.00" timeLoss="42.40" rerouteNo="0" devices="tripinfo_flow3.3" vType="vtypeauto" speedFactor="0.90" vaporized=""/>
    <tripinfo id="flow5.0" depart="5.50" departLane="end2_junction_0" departPos="4.10" departSpeed="0.00" departDelay="5.50" arrival="88.00" arrivalLane="junction_end3_1" arrivalPos="489.60" arrivalSpeed="33.19" duration="82.50" routeLength="994.45" waitingTime="24.70" waitingCount="2" stopTime="0.00" timeLoss="50.58" rerouteNo="0" devices="tripinfo_flow5.0" vType="vtypeauto" speedFactor="0.83" vaporized=""/>
    <tripinfo id="flow4.3" depart="19.50" departLane="end2_junction_0" departPos="4.10" departSpeed="0.00" departDelay="16.50" arrival="88.80" arrivalLane="junction_end4_0" arrivalPos="489.60" arrivalSpeed="35.90" duration="69.30" routeLength="995.90" waitingTime="7.50" waitingCount="1" stopTime="0.00" timeLoss="41.54" rerouteNo="0" devices="tripinfo_flow4.3" vType="vtypeauto" speedFactor="1.03" vaporized=""/>
    <tripinfo id="flow9.4" depart="22.60" departLane="end4_junction_0" departPos="4.10" departSpeed="0.00" departDelay="18.60" arrival="89.10" arrivalLane="junction_end3_0" arrivalPos="489.60" arrivalSpeed="35.27" duration="66.50" routeLength="984.13" waitingTime="7.20" waitingCount="1" stopTime="0.00" timeLoss="38.21" rerouteNo="0" devices="tripinfo_flow9.4" vType="vtypeauto" speedFactor="1.14" vaporized=""/>
    <tripinfo id="flow10.3" depart="19.70" departLane="end4_junction_0" departPos="4.10" departSpeed="0.00" departDelay="16.70" arrival="89.40" arrivalLane="junction_end2_0" arrivalPos="489.60" arrivalSpeed="35.94" duration="69.70" routeLength="995.90" waitingTime="6.00" waitingCount="1" stopTime="0.00" timeLoss="41.99" rerouteNo="0" devices="tripinfo_flow10.3" vType="vtypeauto" speedFactor="1.00" vaporized=""/>
    <tripinfo id="flow4.1" depart="8.30" departLane="end2_junction_0" departPos="4.10" departSpeed="0.00" departDelay="7.30" arrival="89.60" arrivalLane="junction_end4_1" arrivalPos="489.60" arrivalSpeed="35.12" duration="81.30" routeLength="995.90" waitingTime="22.20" waitingCount="2" stopTime="0.00" timeLoss="52.95" rerouteNo="0" devices="tripinfo_flow4.1" vType="vtypeauto" speedFactor="0.88" vaporized=""/>
    <tripinfo id="flow3.4" depart="22.40" departLane="end2_junction_0" departPos="4.10" departSpeed="0.00" departDelay="18.40" arrival="90.80" arrivalLane="junction_end1_0" arrivalPos="489.60" arrivalSpeed="35.94" duration="68.40" routeLength="984.13" waitingTime="5.90" waitingCount="1" stopTime="0.00" timeLoss="40.19" rerouteNo="0" devices="tripinfo_flow3.4" vType="vtypeauto" speedFactor="1.17" vaporized=""/>
    <tripinfo id="flow9.5" depart="28.30" departLane="end4_junction_0" departPos="4.10" departSpeed="0.00" departDelay="23.30" arrival="93.00" arrivalLane="junction_end3_1" arrivalPos="489.60" arrivalSpeed="36.00" duration="64.70" routeLength="984.13" waitingTime="2.50" waitingCount="1" stopTime="0.00" timeLoss="36.22" rerouteNo="0" devices="tripinfo_flow9.5" vType="vtypeauto" speedFactor="1.02" vaporized=""/>
    <tripinfo id="flow3.5" depart="28.00" departLane="end2_junction_0" departPos="4.10" departSpeed="0.00" departDelay="23.00" arrival="93.60" arrivalLane="junction_end1_0" arrivalPos="489.60" arrivalSpeed="36.00" duration="65.60" routeLength="984.13" waitingTime="3.10" waitingCount="1" stopTime="0.00" timeLoss="37.10" rerouteNo="0" devices="tripinfo_flow3.5" vType="vtypeauto" speedFactor="0.99" vaporized=""/>
    <tripinfo id="flow9.6" depart="34.00" departLane="end4_junction_0" departPos="4.10" departSpeed="0.00" departDelay="28.00" arrival="95.30" arrivalLane="junction_end3_0" arrivalPos="489.60" arrivalSpeed="35.94" duration="61.30" routeLength="984.13" waitingTime="0.00" waitingCount="0" stopTime="0.00" timeLoss="32.83" rerouteNo="0" devices="tripinfo_flow9.6" vType="vtypeauto" speedFactor="1.00" vaporized=""/>
    <tripinfo id="flow10.5" depart="31.10" departLane="end4_junction_0" departPos="4.10" departSpeed="0.00" departDelay="26.10" arrival="95.70" arrivalLane="junction_end2_0" arrivalPos="489.60" arrivalSpeed="35.95" duration="64.60" routeLength="995.90" waitingTime="0.00" waitingCount="0" stopTime="0.00" timeLoss="36.93" rerouteNo="0" devices="tripinfo_flow10.5" vType="vtypeauto" speedFactor="1.02" vaporized=""/>
    <tripinfo id="flow3.6" depart="33.60" departLane="end2_junction_0" departPos="4.10" departSpeed="0.00" departDelay="27.60" arrival="95.80" arrivalLane="junction_end1_0" arrivalPos="489.60" arrivalSpeed="35.93" duration="62.20" routeLength="984.13" waitingTime="0.00" waitingCount="0" stopTime="0.00" timeLoss="33.70" rerouteNo="0" devices="tripinfo_flow3.6" vType="vtypeauto" speedFactor="0.98" vaporized=""/>
    <tripinfo id="flow4.5" depart="30.70" departLane="end2_junction_0" departPos="4.10" departSpeed="0.00" departDelay="25.70" arrival="96.50" arrivalLane="junction_end4_0" arrivalPos="489.60" arrivalSpeed="35.95" duration="65.80" routeLength="995.90" waitingTime="0.00" waitingCount="0" stopTime="0.00" timeLoss="38.14" rerouteNo="0" devices="tripinfo_flow4.5" vType="vtypeauto" speedFactor="0.94" vaporized=""/>
    <tripinfo id="flow9.7" depart="39.70" departLane="end4_junction_0" departPos="4.10" departSpeed="0.00" departDelay="32.70" arrival="99.40" arrivalLane="junction_end3_0" arrivalPos="489.60" arrivalSpeed="35.97" duration="59.70" routeLength="984.13" waitingTime="0.00" waitingCount="0" stopTime="0.00" timeLoss="31.10" rerouteNo="0" devices="tripinfo_flow9.7" vType="vtypeauto" speedFactor="0.92" vaporized=""/>
    <tripinfo id="flow3.7" depart="39.30" departLane="end2_junction_0" departPos="4.10" departSpeed="0.00" departDelay="32.30" arrival="99.60" arrivalLane="junction_end1_0" arrivalPos="489.60" arrivalSpeed="35.95" duration="60.30" routeLength="984.13" waitingTime="0.00" waitingCount="0" stopTime="0.00" timeLoss="31.80" rerouteNo="0" devices="tripinfo_flow3.7" vType="vtypeauto" speedFactor="1.04" vaporized=""/>
    <tripinfo id="flow10.6" depart="36.80" departLane="end4_junction_0" departPos="4.10" departSpeed="0.00" departDelay="30.80" arrival="99.90" arrivalLane="junction_end2_0" arrivalPos="489.60" arrivalSpeed="35.88" duration="63.10" routeLength="995.90" waitingTime="0.00" waitingCount="0" stopTime="0.00" timeLoss="35.34" rerouteNo="0" devices="tripinfo_flow10.6" vType="vtypeauto" speedFactor="1.02" vaporized=""/>
    <tripinfo id="flow4.6" depart="36.40" departLane="end2_junction_0" departPos="4.10" departSpeed="0.00" departDelay="30.40" arrival="100.10" arrivalLane="junction_end4_0" arrivalPos="489.60" arrivalSpeed="35.95" duration="63.70" routeLength="995.90" waitingTime="0.00" waitingCount="0" stopTime="0.00" timeLoss="35.97" rerouteNo="0" devices="tripinfo_flow4.6" vType="vtypeauto" speedFactor="1.03" vaporized=""/>
    <tripinfo id="flow9.8" depart="45.40" departLane="end4_junction_0" departPos="4.10" departSpeed="0.00" departDelay="37.40" arrival="102.80" arrivalLane="junction_end3_0" arrivalPos="489.60" arrivalSpeed="35.93" duration="57.40" routeLength="984.13" waitingTime="0.00" waitingCount="0" stopTime="0.00" timeLoss="28.98" rerouteNo="0" devices="tripinfo_flow9.8" vType="vtypeauto" speedFactor="1.07" vaporized=""/>
    <tripinfo id="flow3.8" depart="44.90" departLane="end2_junction_0" departPos="4.10" departSpeed="0.00" departDelay="36.90" arrival="103.00" arrivalLane="junction_end1_0" arrivalPos="489.60" arrivalSpeed="35.99" duration="58.10" routeLength="984.13" waitingTime="0.00" waitingCount="0" stopTime="0.00" timeLoss="29.69" rerouteNo="0" devices="tripinfo_flow3.8" vType="vtypeauto" speedFactor="1.10" vaporized=""/>
    <tripinfo id="flow5.1" depart="11.00" departLane="end2_junction_0" departPos="4.10" departSpeed="0.00" departDelay="10.00" arrival="105.00" arrivalLane="junction_end3_1" arrivalPos="489.60" arrivalSpeed="35.93" duration="94.00" routeLength="994.45" waitingTime="29.40" waitingCount="2" stopTime="0.00" timeLoss="64.64" rerouteNo="0" devices="tripinfo_flow5.1" vType="vtypeauto" speedFactor="0.94" vaporized=""/>
    <tripinfo id="flow9.9" depart="51.00" departLane="end4_junction_0" departPos="4.10" departSpeed="0.00" departDelay="42.00" arrival="105.30" arrivalLane="junction_end3_0" arrivalPos="489.60" arrivalSpeed="35.97" duration="54.30" routeLength="984.13" waitingTime="0.00" waitingCount="0" stopTime="0.00" timeLoss="25.82" rerouteNo="0" devices="tripinfo_flow9.9" vType="vtypeauto" speedFactor="1.00" vaporized=""/>
    <tripinfo id="flow3.9" depart="50.60" departLane="end2_junction_0" departPos="4.10" departSpeed="0.00" departDelay="41.60" arrival="106.60" arrivalLane="junction_end1_0" arrivalPos="489.60" arrivalSpeed="34.53" duration="56.00" routeLength="984.13" waitingTime="0.00" waitingCount="0" stopTime="0.00" timeLoss="26.22" rerouteNo="0" devices="tripinfo_flow3.9" vType="vtypeauto" speedFactor="0.87" vaporized=""/>
    <tripinfo id="flow10.2" depart="14.10" departLane="end4_junction_0" departPos="4.10" departSpeed="0.00" departDelay="12.10" arrival="106.70" arrivalLane="junction_end2_0" arrivalPos="489.60" arrivalSpeed="35.98" duration="92.60" routeLength="995.90" waitingTime="28.90" waitingCount="2" stopTime="0.00" timeLoss="64.88" rerouteNo="0" devices="tripinfo_flow10.2" vType="vtypeauto" speedFactor="0.99" vaporized=""/>
    <tripinfo id="flow4.2" depart="13.90" departLane="end2_junction_0" departPos="4.10" departSpeed="0.00" departDelay="11.90" arrival="106.90" arrivalLane="junction_end4_1" arrivalPos="489.60" arrivalSpeed="35.98" duration="93.00" routeLength="995.90" waitingTime="27.60" waitingCount="2" stopTime="0.00" timeLoss="65.28" rerouteNo="0" devices="tripinfo_flow4.2" vType="vtypeauto" speedFactor="1.13" vaporized=""/>
    <tripinfo id="flow4.8" depart="47.70" departLane="end2_junction_0" departPos="4.10" departSpeed="0.00" departDelay="39.70" arrival="107.20" arrivalLane="junction_end4_0" arrivalPos="489.60" arrivalSpeed="35.98" duration="59.50" routeLength="995.90" waitingTime="0.00" waitingCount="0" stopTime="0.00" timeLoss="31.77" rerouteNo="0" devices="tripinfo_flow4.8" vType="vtypeauto" speedFactor="1.06" vaporized=""/>
    <tripinfo id="flow10.4" depart="25.40" departLane="end4_junction_0" departPos="4.10" departSpeed="0.00" departDelay="21.40" arrival="107.90" arrivalLane="junction_end2_1" arrivalPos="489.60" arrivalSpeed="35.89" duration="82.50" routeLength="995.90" waitingTime="11.40" waitingCount="2" stopTime="0.00" timeLoss="54.82" rerouteNo="0" devices="tripinfo_flow10.4" vType="vtypeauto" speedFactor="1.02" vaporized=""/>
    <tripinfo id="flow4.7" depart="42.10" departLane="end2_junction_0" departPos="4.10" departSpeed="0.00" departDelay="35.10" arrival="108.60" arrivalLane="junction_end4_0" arrivalPos="489.60" arrivalSpeed="35.92" duration="66.50" routeLength="995.90" waitingTime="0.00" waitingCount="0" stopTime="0.00" timeLoss="38.79" rerouteNo="0" devices="tripinfo_flow4.7" vType="vtypeauto" speedFactor="1.01" vaporized=""/>
    <tripinfo id="flow10.7" depart="42.50" departLane="end4_junction_0" departPos="4.10" departSpeed="0.00" departDelay="35.50" arrival="108.90" arrivalLane="junction_end2_0" arrivalPos="489.60" arrivalSpeed="35.98" duration="66.40" routeLength="995.90" waitingTime="0.00" waitingCount="0" stopTime="0.00" timeLoss="38.65" rerouteNo="0" devices="tripinfo_flow10.7" vType="vtypeauto" speedFactor="1.09" vaporized=""/>
    <tripinfo id="flow4.9" depart="53.40" departLane="end2_junction_0" departPos="4.10" departSpeed="0.00" departDelay="44.40" arrival="109.70" arrivalLane="junction_end4_1" arrivalPos="489.60" arrivalSpeed="35.97" duration="56.30" routeLength="995.90" waitingTime="0.00" waitingCount="0" stopTime="0.00" timeLoss="28.56" rerouteNo="0" devices="tripinfo_flow4.9" vType="vtypeauto" speedFactor="1.10" vaporized=""/>
    <tripinfo id="flow10.8" depart="48.20" departLane="end4_junction_0" departPos="4.10" departSpeed="0.00" departDelay="40.20" arrival="109.80" arrivalLane="junction_end2_1" arrivalPos="489.60" arrivalSpeed="35.94" duration="61.60" routeLength="995.90" waitingTime="0.00" waitingCount="0" stopTime="0.00" timeLoss="33.90" rerouteNo="0" devices="tripinfo_flow10.8" vType="vtypeauto" speedFactor="1.01" vaporized=""/>
    <tripinfo id="flow3.10" depart="56.20" departLane="end2_junction_0" departPos="4.10" departSpeed="0.00" departDelay="46.20" arrival="110.00" arrivalLane="junction_end1_0" arrivalPos="489.60" arrivalSpeed="35.91" duration="53.80" routeLength="984.13" waitingTime="0.00" waitingCount="0" stopTime="0.00" timeLoss="25.39" rerouteNo="0" devices="tripinfo_flow3.10" vType="vtypeauto" speedFactor="1.02" vaporized=""/>
    <tripinfo id="flow9.10" depart="56.60" departLane="end4_junction_0" departPos="4.10" departSpeed="0.00" departDelay="46.60" arrival="114.50" arrivalLane="junction_end3_0" arrivalPos="489.60" arrivalSpeed="36.00" duration="57.90" routeLength="984.13" waitingTime="0.00" waitingCount="0" stopTime="0.00" timeLoss="29.46" rerouteNo="0" devices="tripinfo_flow9.10" vType="vtypeauto" speedFactor="1.01" vaporized=""/>
    <tripinfo id="flow4.10" depart="59.00" departLane="end2_junction_0" departPos="4.10" departSpeed="0.00" departDelay="49.00" arrival="114.80" arrivalLane="junction_end4_0" arrivalPos="489.60" arrivalSpeed="35.97" duration="55.80" routeLength="995.90" waitingTime="0.00" waitingCount="0" stopTime="0.00" timeLoss="28.14" rerouteNo="0" devices="tripinfo_flow4.10" vType="vtypeauto" speedFactor="1.06" vaporized=""/>
    <tripinfo id="flow10.9" depart="53.70" departLane="end4_junction_0" departPos="4.10" departSpeed="0.00" departDelay="44.70" arrival="115.00" arrivalLane="junction_end2_0" arrivalPos="489.60" arrivalSpeed="35.98" duration="61.30" routeLength="995.90" waitingTime="0.00" waitingCount="0" stopTime="0.00" timeLoss="33.54" rerouteNo="0" devices="tripinfo_flow10.9" vType="vtypeauto" speedFactor="0.99" vaporized=""/>
    <tripinfo id="flow3.11" depart="61.90" departLane="end2_junction_0" departPos="4.10" departSpeed="0.00" departDelay="50.90" arrival="115.30" arrivalLane="junction_end1_0" arrivalPos="489.60" arrivalSpeed="35.88" duration="53.40" routeLength="984.13" waitingTime="0.00" waitingCount="0" stopTime="0.00" timeLoss="24.95" rerouteNo="0" devices="tripinfo_flow3.11" vType="vtypeauto" speedFactor="1.01" vaporized=""/>
    <tripinfo id="flow9.11" depart="62.30" departLane="end4_junction_0" departPos="4.10" departSpeed="0.00" departDelay="51.30" arrival="117.80" arrivalLane="junction_end3_0" arrivalPos="489.60" arrivalSpeed="35.91" duration="55.50" routeLength="984.13" waitingTime="0.00" waitingCount="0" stopTime="0.00" timeLoss="27.21" rerouteNo="0" devices="tripinfo_flow9.11" vType="vtypeauto" speedFactor="1.16" vaporized=""/>
    <tripinfo id="flow10.10" depart="59.40" departLane="end4_junction_0" departPos="4.10" departSpeed="0.00" departDelay="49.40" arrival="118.20" arrivalLane="junction_end2_0" arrivalPos="489.60" arrivalSpeed="35.88" duration="58.80" routeLength="995.90" waitingTime="0.00" waitingCount="0" stopTime="0.00" timeLoss="31.05" rerouteNo="0" devices="tripinfo_flow10.10" vType="vtypeauto" speedFactor="1.03" vaporized=""/>
    <tripinfo id="flow3.12" depart="67.60" departLane="end2_junction_0" departPos="4.10" departSpeed="0.00" departDelay="55.60" arrival="119.60" arrivalLane="junction_end1_0" arrivalPos="489.60" arrivalSpeed="35.90" duration="52.00" routeLength="984.13" waitingTime="0.00" waitingCount="0" stopTime="0.00" timeLoss="23.45" rerouteNo="0" devices="tripinfo_flow3.12" vType="vtypeauto" speedFactor="1.00" vaporized=""/>
    <tripinfo id="flow4.4" depart="25.20" departLane="end2_junction_0" departPos="4.10" departSpeed="0.00" departDelay="21.20" arrival="121.30" arrivalLane="junction_end4_0" arrivalPos="489.60" arrivalSpeed="35.88" duration="96.10" routeLength="995.90" waitingTime="16.70" waitingCount="3" stopTime="0.00" timeLoss="68.39" rerouteNo="0" devices="tripinfo_flow4.4" vType="vtypeauto" speedFactor="1.02" vaporized=""/>
    <tripinfo id="flow4.11" depart="64.70" departLane="end2_junction_0" departPos="4.10" departSpeed="0.00" departDelay="53.70" arrival="122.20" arrivalLane="junction_end4_1" arrivalPos="489.60" arrivalSpeed="35.90" duration="57.50" routeLength="995.90" waitingTime="0.00" waitingCount="0" stopTime="0.00" timeLoss="29.74" rerouteNo="0" devices="tripinfo_flow4.11" vType="vtypeauto" speedFactor="1.12" vaporized=""/>
    <tripinfo id="flow10.11" depart="65.10" departLane="end4_junction_0" departPos="4.10" departSpeed="0.00" departDelay="54.10" arrival="122.70" arrivalLane="junction_end2_0" arrivalPos="489.60" arrivalSpeed="35.91" duration="57.60" routeLength="995.90" waitingTime="0.00" waitingCount="0" stopTime="0.00" timeLoss="29.94" rerouteNo="0" devices="tripinfo_flow10.11" vType="vtypeauto" speedFactor="0.94" vaporized=""/>
    <tripinfo id="flow9.12" depart="68.00" departLane="end4_junction_0" departPos="4.10" departSpeed="0.00" departDelay="56.00" arrival="122.90" arrivalLane="junction_end3_0" arrivalPos="489.60" arrivalSpeed="35.99" duration="54.90" routeLength="984.13" waitingTime="0.00" waitingCount="0" stopTime="0.00" timeLoss="26.24" rerouteNo="0" devices="tripinfo_flow9.12" vType="vtypeauto" speedFactor="0.93" vaporized=""/>
    <tripinfo id="flow4.12" depart="70.40" departLane="end2_junction_0" departPos="4.10" departSpeed="0.00" departDelay="58.40" arrival="124.10" arrivalLane="junction_end4_0" arrivalPos="489.60" arrivalSpeed="35.88" duration="53.70" routeLength="995.90" waitingTime="0.00" waitingCount="0" stopTime="0.00" timeLoss="25.95" rerouteNo="0" devices="tripinfo_flow4.12" vType="vtypeauto" speedFactor="0.97" vaporized=""/>