<?xml version="1.0" encoding="UTF-8"?>

<!-- generated on 2024-08-25 10:44:38 by Eclipse SUMO GUI Version 1.20.0
<configuration xmlns:xsi="http://www.w3.org/2001/XMLSchema-instance" xsi:noNamespaceSchemaLocation="http://sumo.dlr.de/xsd/sumoConfiguration.xsd">

    <input>
        <net-file value="sim_cfg_2_lanes/4way.net.xml"/>
        <route-files value="sim_cfg_2_lanes/4way.rou.xml"/>
    </input>

    <output>
        <tripinfo-output value="sim_cfg_2_lanes/tripinfo2.xml"/>
    </output>

    <time>
        <begin value="0"/>
        <end value="500"/>
        <step-length value="0.1"/>
    </time>

    <traci_server>
        <remote-port value="49273"/>
    </traci_server>

    <gui_only>
        <gui-settings-file value="sim_cfg_2_lanes/gui_settings.xml"/>
    </gui_only>

</configuration>
-->

<tripinfos xmlns:xsi="http://www.w3.org/2001/XMLSchema-instance" xsi:noNamespaceSchemaLocation="http://sumo.dlr.de/xsd/tripinfo_file.xsd">
    <tripinfo id="flow1.0" depart="2.50" departLane="end1_junction_0" departPos="4.10" departSpeed="0.00" departDelay="2.50" arrival="40.30" arrivalLane="junction_end3_1" arrivalPos="489.60" arrivalSpeed="35.89" duration="37.80" routeLength="995.90" waitingTime="0.00" waitingCount="0" stopTime="0.00" timeLoss="10.14" rerouteNo="0" devices="tripinfo_flow1.0" vType="vtypeauto" speedFactor="0.94" vaporized=""/>
    <tripinfo id="flow7.0" depart="2.60" departLane="end3_junction_0" departPos="4.10" departSpeed="0.00" departDelay="2.60" arrival="40.80" arrivalLane="junction_end1_1" arrivalPos="489.60" arrivalSpeed="35.40" duration="38.20" routeLength="995.90" waitingTime="0.00" waitingCount="0" stopTime="0.00" timeLoss="10.02" rerouteNo="0" devices="tripinfo_flow7.0" vType="vtypeauto" speedFactor="0.89" vaporized=""/>
    <tripinfo id="flow0.0" depart="0.00" departLane="end1_junction_0" departPos="4.10" departSpeed="0.00" departDelay="0.00" arrival="45.40" arrivalLane="junction_end4_0" arrivalPos="489.60" arrivalSpeed="35.88" duration="45.40" routeLength="984.13" waitingTime="0.00" waitingCount="0" stopTime="0.00" timeLoss="16.99" rerouteNo="0" devices="tripinfo_flow0.0" vType="vtypeauto" speedFactor="1.06" vaporized=""/>
    <tripinfo id="flow6.0" depart="0.00" departLane="end3_junction_0" departPos="4.10" departSpeed="0.00" departDelay="0.00" arrival="45.70" arrivalLane="junction_end2_0" arrivalPos="489.60" arrivalSpeed="35.97" duration="45.70" routeLength="984.13" waitingTime="0.00" waitingCount="0" stopTime="0.00" timeLoss="17.27" rerouteNo="0" devices="tripinfo_flow6.0" vType="vtypeauto" speedFactor="1.05" vaporized=""/>
    <tripinfo id="flow0.1" depart="5.20" departLane="end1_junction_0" departPos="4.10" departSpeed="0.00" departDelay="4.20" arrival="51.40" arrivalLane="junction_end4_0" arrivalPos="489.60" arrivalSpeed="35.99" duration="46.20" routeLength="984.13" waitingTime="0.00" waitingCount="0" stopTime="0.00" timeLoss="17.77" rerouteNo="0" devices="tripinfo_flow0.1" vType="vtypeauto" speedFactor="1.05" vaporized=""/>
    <tripinfo id="flow6.1" depart="5.30" departLane="end3_junction_0" departPos="4.10" departSpeed="0.00" departDelay="4.30" arrival="51.80" arrivalLane="junction_end2_0" arrivalPos="489.60" arrivalSpeed="35.95" duration="46.50" routeLength="984.13" waitingTime="0.00" waitingCount="0" stopTime="0.00" timeLoss="18.00" rerouteNo="0" devices="tripinfo_flow6.1" vType="vtypeauto" speedFactor="0.94" vaporized=""/>
    <tripinfo id="flow6.2" depart="10.60" departLane="end3_junction_0" departPos="4.10" departSpeed="0.00" departDelay="8.60" arrival="57.10" arrivalLane="junction_end2_0" arrivalPos="489.60" arrivalSpeed="35.90" duration="46.50" routeLength="984.13" waitingTime="0.00" waitingCount="0" stopTime="0.00" timeLoss="18.27" rerouteNo="0" devices="tripinfo_flow6.2" vType="vtypeauto" speedFactor="1.18" vaporized=""/>
    <tripinfo id="flow0.2" depart="10.50" departLane="end1_junction_0" departPos="4.10" departSpeed="0.00" departDelay="8.50" arrival="58.90" arrivalLane="junction_end4_0" arrivalPos="489.60" arrivalSpeed="32.93" duration="48.40" routeLength="984.13" waitingTime="0.00" waitingCount="0" stopTime="0.00" timeLoss="17.20" rerouteNo="0" devices="tripinfo_flow0.2" vType="vtypeauto" speedFactor="0.83" vaporized=""/>
    <tripinfo id="flow7.1" depart="7.90" departLane="end3_junction_0" departPos="4.10" departSpeed="0.00" departDelay="6.90" arrival="60.70" arrivalLane="junction_end1_0" arrivalPos="489.60" arrivalSpeed="35.89" duration="52.80" routeLength="995.90" waitingTime="3.50" waitingCount="1" stopTime="0.00" timeLoss="25.13" rerouteNo="0" devices="tripinfo_flow7.1" vType="vtypeauto" speedFactor="1.16" vaporized=""/>
    <tripinfo id="flow1.1" depart="7.80" departLane="end1_junction_0" departPos="4.10" departSpeed="0.00" departDelay="6.80" arrival="61.00" arrivalLane="junction_end3_0" arrivalPos="489.60" arrivalSpeed="35.99" duration="53.20" routeLength="995.90" waitingTime="3.90" waitingCount="1" stopTime="0.00" timeLoss="25.54" rerouteNo="0" devices="tripinfo_flow1.1" vType="vtypeauto" speedFactor="1.12" vaporized=""/>
    <tripinfo id="flow1.2" depart="13.00" departLane="end1_junction_0" departPos="4.10" departSpeed="0.00" departDelay="11.00" arrival="63.20" arrivalLane="junction_end3_0" arrivalPos="489.60" arrivalSpeed="34.82" duration="50.20" routeLength="995.90" waitingTime="0.00" waitingCount="0" stopTime="0.00" timeLoss="21.67" rerouteNo="0" devices="tripinfo_flow1.2" vType="vtypeauto" speedFactor="0.87" vaporized=""/>
    <tripinfo id="flow6.3" depart="15.90" departLane="end3_junction_0" departPos="4.10" departSpeed="0.00" departDelay="12.90" arrival="63.80" arrivalLane="junction_end2_0" arrivalPos="489.60" arrivalSpeed="35.98" duration="47.90" routeLength="984.13" waitingTime="0.00" waitingCount="0" stopTime="0.00" timeLoss="19.48" rerouteNo="0" devices="tripinfo_flow6.3" vType="vtypeauto" speedFactor="1.09" vaporized=""/>
    <tripinfo id="flow7.2" depart="13.20" departLane="end3_junction_0" departPos="4.10" departSpeed="0.00" departDelay="11.20" arrival="66.10" arrivalLane="junction_end1_0" arrivalPos="489.60" arrivalSpeed="35.95" duration="52.90" routeLength="995.90" waitingTime="0.00" waitingCount="0" stopTime="0.00" timeLoss="25.21" rerouteNo="0" devices="tripinfo_flow7.2" vType="vtypeauto" speedFactor="1.15" vaporized=""/>
    <tripinfo id="flow0.3" depart="15.70" departLane="end1_junction_0" departPos="4.10" departSpeed="0.00" departDelay="12.70" arrival="66.20" arrivalLane="junction_end4_0" arrivalPos="489.60" arrivalSpeed="35.91" duration="50.50" routeLength="984.13" waitingTime="0.00" waitingCount="0" stopTime="0.00" timeLoss="21.94" rerouteNo="0" devices="tripinfo_flow0.3" vType="vtypeauto" speedFactor="0.97" vaporized=""/>
    <tripinfo id="flow6.4" depart="21.30" departLane="end3_junction_0" departPos="4.10" departSpeed="0.00" departDelay="17.30" arrival="69.60" arrivalLane="junction_end2_0" arrivalPos="489.60" arrivalSpeed="35.96" duration="48.30" routeLength="984.13" waitingTime="0.00" waitingCount="0" stopTime="0.00" timeLoss="19.89" rerouteNo="0" devices="tripinfo_flow6.4" vType="vtypeauto" speedFactor="1.00" vaporized=""/>
    <tripinfo id="flow0.4" depart="21.00" departLane="end1_junction_0" departPos="4.10" departSpeed="0.00" departDelay="17.00" arrival="70.40" arrivalLane="junction_end4_0" arrivalPos="489.60" arrivalSpeed="35.00" duration="49.40" routeLength="984.13" waitingTime="0.00" waitingCount="0" stopTime="0.00" timeLoss="20.09" rerouteNo="0" devices="tripinfo_flow0.4" vType="vtypeauto" speedFactor="0.88" vaporized=""/>
    <tripinfo id="flow2.0" depart="5.10" departLane="end1_junction_0" departPos="4.10" departSpeed="0.00" departDelay="5.10" arrival="73.50" arrivalLane="junction_end2_1" arrivalPos="489.60" arrivalSpeed="36.00" duration="68.40" routeLength="994.45" waitingTime="19.40" waitingCount="1" stopTime="0.00" timeLoss="39.20" rerouteNo="0" devices="tripinfo_flow2.0" vType="vtypeauto" speedFactor="1.01" vaporized=""/>
    <tripinfo id="flow8.0" depart="5.20" departLane="end3_junction_0" departPos="4.10" departSpeed="0.00" departDelay="5.20" arrival="73.50" arrivalLane="junction_end4_1" arrivalPos="489.60" arrivalSpeed="35.90" duration="68.30" routeLength="994.45" waitingTime="19.60" waitingCount="1" stopTime="0.00" timeLoss="38.96" rerouteNo="0" devices="tripinfo_flow8.0" vType="vtypeauto" speedFactor="0.94" vaporized=""/>
    <tripinfo id="flow4.0" depart="2.60" departLane="end2_junction_0" departPos="4.10" departSpeed="0.00" departDelay="2.60" arrival="81.20" arrivalLane="junction_end4_1" arrivalPos="489.60" arrivalSpeed="35.90" duration="78.60" routeLength="995.90" waitingTime="30.10" waitingCount="1" stopTime="0.00" timeLoss="50.90" rerouteNo="0" devices="tripinfo_flow4.0" vType="vtypeauto" speedFactor="1.03" vaporized=""/>
    <tripinfo id="flow3.0" depart="0.00" departLane="end2_junction_0" departPos="4.10" departSpeed="0.00" departDelay="0.00" arrival="81.30" arrivalLane="junction_end1_0" arrivalPos="489.60" arrivalSpeed="35.97" duration="81.30" routeLength="984.13" waitingTime="33.00" waitingCount="1" stopTime="0.00" timeLoss="52.96" rerouteNo="0" devices="tripinfo_flow3.0" vType="vtypeauto" speedFactor="1.08" vaporized=""/>
    <tripinfo id="flow10.0" depart="2.60" departLane="end4_junction_0" departPos="4.10" departSpeed="0.00" departDelay="2.60" arrival="81.40" arrivalLane="junction_end2_1" arrivalPos="489.60" arrivalSpeed="35.92" duration="78.80" routeLength="995.90" waitingTime="30.00" waitingCount="1" stopTime="0.00" timeLoss="51.12" rerouteNo="0" devices="tripinfo_flow10.0" vType="vtypeauto" speedFactor="1.09" vaporized=""/>
    <tripinfo id="flow9.0" depart="0.00" departLane="end4_junction_0" departPos="4.10" departSpeed="0.00" departDelay="0.00" arrival="81.60" arrivalLane="junction_end3_0" arrivalPos="489.60" arrivalSpeed="34.18" duration="81.60" routeLength="984.13" waitingTime="32.80" waitingCount="1" stopTime="0.00" timeLoss="51.46" rerouteNo="0" devices="tripinfo_flow9.0" vType="vtypeauto" speedFactor="0.86" vaporized=""/>
    <tripinfo id="flow9.1" depart="5.30" departLane="end4_junction_0" departPos="4.10" departSpeed="0.00" departDelay="4.30" arrival="83.10" arrivalLane="junction_end3_0" arrivalPos="489.60" arrivalSpeed="35.90" duration="77.80" routeLength="984.13" waitingTime="23.50" waitingCount="1" stopTime="0.00" timeLoss="49.35" rerouteNo="0" devices="tripinfo_flow9.1" vType="vtypeauto" speedFactor="1.01" vaporized=""/>
    <tripinfo id="flow3.1" depart="5.20" departLane="end2_junction_0" departPos="4.10" departSpeed="0.00" departDelay="4.20" arrival="83.30" arrivalLane="junction_end1_0" arrivalPos="489.60" arrivalSpeed="35.92" duration="78.10" routeLength="984.13" waitingTime="22.00" waitingCount="1" stopTime="0.00" timeLoss="49.42" rerouteNo="0" devices="tripinfo_flow3.1" vType="vtypeauto" speedFactor="0.93" vaporized=""/>
    <tripinfo id="flow9.2" depart="10.70" departLane="end4_junction_0" departPos="4.10" departSpeed="0.00" departDelay="8.70" arrival="84.20" arrivalLane="junction_end3_1" arrivalPos="489.60" arrivalSpeed="35.95" duration="73.50" routeLength="984.13" waitingTime="17.80" waitingCount="1" stopTime="0.00" timeLoss="45.18" rerouteNo="0" devices="tripinfo_flow9.2" vType="vtypeauto" speedFactor="1.17" vaporized=""/>
    <tripinfo id="flow3.2" depart="10.50" departLane="end2_junction_0" departPos="4.10" departSpeed="0.00" departDelay="8.50" arrival="85.20" arrivalLane="junction_end1_0" arrivalPos="489.60" arrivalSpeed="35.98" duration="74.70" routeLength="984.13" waitingTime="17.50" waitingCount="1" stopTime="0.00" timeLoss="46.09" rerouteNo="0" devices="tripinfo_flow3.2" vType="vtypeauto" speedFactor="0.95" vaporized=""/>
    <tripinfo id="flow9.3" depart="16.00" departLane="end4_junction_0" departPos="4.10" departSpeed="0.00" departDelay="13.00" arrival="86.40" arrivalLane="junction_end3_0" arrivalPos="489.60" arrivalSpeed="35.93" duration="70.40" routeLength="984.13" waitingTime="13.20" waitingCount="1" stopTime="0.00" timeLoss="42.00" rerouteNo="0" devices="tripinfo_flow9.3" vType="vtypeauto" speedFactor="1.09" vaporized=""/>
    <tripinfo id="flow11.0" depart="5.20" departLane="end4_junction_0" departPos="4.10" departSpeed="0.00" departDelay="5.20" arrival="87.30" arrivalLane="junction_end1_1" arrivalPos="489.60" arrivalSpeed="35.90" duration="82.10" routeLength="994.45" waitingTime="24.50" waitingCount="2" stopTime="0.00" timeLoss="52.97" rerouteNo="0" devices="tripinfo_flow11.0" vType="vtypeauto" speedFactor="1.03" vaporized=""/>
    <tripinfo id="flow10.3" depart="18.50" departLane="end4_junction_0" departPos="4.10" departSpeed="0.00" departDelay="15.50" arrival="87.40" arrivalLane="junction_end2_0" arrivalPos="489.60" arrivalSpeed="35.98" duration="68.90" routeLength="995.90" waitingTime="8.80" waitingCount="1" stopTime="0.00" timeLoss="41.20" rerouteNo="0" devices="tripinfo_flow10.3" vType="vtypeauto" speedFactor="1.00" vaporized=""/>
    <tripinfo id="flow3.3" depart="15.80" departLane="end2_junction_0" departPos="4.10" departSpeed="0.00" departDelay="12.80" arrival="87.50" arrivalLane="junction_end1_0" arrivalPos="489.60" arrivalSpeed="35.94" duration="71.70" routeLength="984.13" waitingTime="13.30" waitingCount="1" stopTime="0.00" timeLoss="43.07" rerouteNo="0" devices="tripinfo_flow3.3" vType="vtypeauto" speedFactor="0.90" vaporized=""/>
    <tripinfo id="flow10.1" depart="8.00" departLane="end4_junction_0" departPos="4.10" departSpeed="0.00" departDelay="7.00" arrival="88.60" arrivalLane="junction_end2_1" arrivalPos="489.60" arrivalSpeed="35.96" duration="80.60" routeLength="995.90" waitingTime="21.90" waitingCount="2" stopTime="0.00" timeLoss="52.92" rerouteNo="0" devices="tripinfo_flow10.1" vType="vtypeauto" speedFactor="0.97" vaporized=""/>
    <tripinfo id="flow3.4" depart="21.00" departLane="end2_junction_0" departPos="4.10" departSpeed="0.00" departDelay="17.00" arrival="88.70" arrivalLane="junction_end1_1" arrivalPos="489.60" arrivalSpeed="35.97" duration="67.70" routeLength="984.13" waitingTime="8.80" waitingCount="1" stopTime="0.00" timeLoss="39.37" rerouteNo="0" devices="tripinfo_flow3.4" vType="vtypeauto" speedFactor="1.17" vaporized=""/>
    <tripinfo id="flow9.4" depart="21.20" departLane="end4_junction_0" departPos="4.10" departSpeed="0.00" departDelay="17.20" arrival="89.70" arrivalLane="junction_end3_0" arrivalPos="489.60" arrivalSpeed="35.98" duration="68.50" routeLength="984.13" waitingTime="7.10" waitingCount="1" stopTime="0.00" timeLoss="40.20" rerouteNo="0" devices="tripinfo_flow9.4" vType="vtypeauto" speedFactor="1.14" vaporized=""/>
    <tripinfo id="flow4.3" depart="18.40" departLane="end2_junction_0" departPos="4.10" departSpeed="0.00" departDelay="15.40" arrival="90.00" arrivalLane="junction_end4_0" arrivalPos="489.60" arrivalSpeed="35.90" duration="71.60" routeLength="995.90" waitingTime="7.60" waitingCount="1" stopTime="0.00" timeLoss="43.89" rerouteNo="0" devices="tripinfo_flow4.3" vType="vtypeauto" speedFactor="1.03" vaporized=""/>
    <tripinfo id="flow9.5" depart="26.50" departLane="end4_junction_0" departPos="4.10" departSpeed="0.00" departDelay="21.50" arrival="92.00" arrivalLane="junction_end3_0" arrivalPos="489.60" arrivalSpeed="35.98" duration="65.50" routeLength="984.13" waitingTime="4.50" waitingCount="1" stopTime="0.00" timeLoss="37.05" rerouteNo="0" devices="tripinfo_flow9.5" vType="vtypeauto" speedFactor="1.02" vaporized=""/>
    <tripinfo id="flow3.5" depart="26.20" departLane="end2_junction_0" departPos="4.10" departSpeed="0.00" departDelay="21.20" arrival="92.90" arrivalLane="junction_end1_0" arrivalPos="489.60" arrivalSpeed="35.95" duration="66.70" routeLength="984.13" waitingTime="4.70" waitingCount="1" stopTime="0.00" timeLoss="38.05" rerouteNo="0" devices="tripinfo_flow3.5" vType="vtypeauto" speedFactor="0.99" vaporized=""/>
    <tripinfo id="flow9.6" depart="31.80" departLane="end4_junction_0" departPos="4.10" departSpeed="0.00" departDelay="25.80" arrival="94.40" arrivalLane="junction_end3_0" arrivalPos="489.60" arrivalSpeed="35.98" duration="62.60" routeLength="984.13" waitingTime="0.00" waitingCount="0" stopTime="0.00" timeLoss="34.09" rerouteNo="0" devices="tripinfo_flow9.6" vType="vtypeauto" speedFactor="1.00" vaporized=""/>
    <tripinfo id="flow3.6" depart="31.60" departLane="end2_junction_0" departPos="4.10" departSpeed="0.00" departDelay="25.60" arrival="94.90" arrivalLane="junction_end1_0" arrivalPos="489.60" arrivalSpeed="35.92" duration="63.30" routeLength="984.13" waitingTime="0.00" waitingCount="0" stopTime="0.00" timeLoss="34.82" rerouteNo="0" devices="tripinfo_flow3.6" vType="vtypeauto" speedFactor="0.98" vaporized=""/>
    <tripinfo id="flow10.5" depart="29.10" departLane="end4_junction_0" departPos="4.10" departSpeed="0.00" departDelay="24.10" arrival="95.20" arrivalLane="junction_end2_0" arrivalPos="489.60" arrivalSpeed="35.92" duration="66.10" routeLength="995.90" waitingTime="0.00" waitingCount="0" stopTime="0.00" timeLoss="38.37" rerouteNo="0" devices="tripinfo_flow10.5" vType="vtypeauto" speedFactor="1.02" vaporized=""/>
    <tripinfo id="flow4.5" depart="28.80" departLane="end2_junction_0" departPos="4.10" departSpeed="0.00" departDelay="23.80" arrival="96.00" arrivalLane="junction_end4_0" arrivalPos="489.60" arrivalSpeed="36.00" duration="67.20" routeLength="995.90" waitingTime="0.00" waitingCount="0" stopTime="0.00" timeLoss="39.48" rerouteNo="0" devices="tripinfo_flow4.5" vType="vtypeauto" speedFactor="0.94" vaporized=""/>
    <tripinfo id="flow9.7" depart="37.10" departLane="end4_junction_0" departPos="4.10" departSpeed="0.00" departDelay="30.10" arrival="98.50" arrivalLane="junction_end3_0" arrivalPos="489.60" arrivalSpeed="35.92" duration="61.40" routeLength="984.13" waitingTime="0.00" waitingCount="0" stopTime="0.00" timeLoss="32.77" rerouteNo="0" devices="tripinfo_flow9.7" vType="vtypeauto" speedFactor="0.92" vaporized=""/>
    <tripinfo id="flow3.7" depart="36.90" departLane="end2_junction_0" departPos="4.10" departSpeed="0.00" departDelay="29.90" arrival="98.80" arrivalLane="junction_end1_0" arrivalPos="489.60" arrivalSpeed="35.98" duration="61.90" routeLength="984.13" waitingTime="0.00" waitingCount="0" stopTime="0.00" timeLoss="33.51" rerouteNo="0" devices="tripinfo_flow3.7" vType="vtypeauto" speedFactor="1.04" vaporized=""/>
    <tripinfo id="flow4.6" depart="34.20" departLane="end2_junction_0" departPos="4.10" departSpeed="0.00" departDelay="28.20" arrival="99.30" arrivalLane="junction_end4_0" arrivalPos="489.60" arrivalSpeed="35.88" duration="65.10" routeLength="995.90" waitingTime="0.00" waitingCount="0" stopTime="0.00" timeLoss="37.38" rerouteNo="0" devices="tripinfo_flow4.6" vType="vtypeauto" speedFactor="1.03" vaporized=""/>
    <tripinfo id="flow9.8" depart="42.40" departLane="end4_junction_0" departPos="4.10" departSpeed="0.00" departDelay="34.40" arrival="100.10" arrivalLane="junction_end3_0" arrivalPos="489.60" arrivalSpeed="35.97" duration="57.70" routeLength="984.13" waitingTime="0.00" waitingCount="0" stopTime="0.00" timeLoss="29.29" rerouteNo="0" devices="tripinfo_flow9.8" vType="vtypeauto" speedFactor="1.07" vaporized=""/>
    <tripinfo id="flow4.7" depart="39.40" departLane="end2_junction_0" departPos="4.10" departSpeed="0.00" departDelay="32.40" arrival="100.20" arrivalLane="junction_end4_1" arrivalPos="489.60" arrivalSpeed="35.90" duration="60.80" routeLength="995.90" waitingTime="0.00" waitingCount="0" stopTime="0.00" timeLoss="33.13" rerouteNo="0" devices="tripinfo_flow4.7" vType="vtypeauto" speedFactor="1.01" vaporized=""/>
    <tripinfo id="flow10.7" depart="39.70" departLane="end4_junction_0" departPos="4.10" departSpeed="0.00" departDelay="32.70" arrival="101.30" arrivalLane="junction_end2_0" arrivalPos="489.60" arrivalSpeed="35.95" duration="61.60" routeLength="995.90" waitingTime="0.00" waitingCount="0" stopTime="0.00" timeLoss="33.87" rerouteNo="0" devices="tripinfo_flow10.7" vType="vtypeauto" speedFactor="1.09" vaporized=""/>
    <tripinfo id="flow3.8" depart="42.10" departLane="end2_junction_0" departPos="4.10" departSpeed="0.00" departDelay="34.10" arrival="103.50" arrivalLane="junction_end1_0" arrivalPos="489.60" arrivalSpeed="35.89" duration="61.40" routeLength="984.13" waitingTime="0.00" waitingCount="0" stopTime="0.00" timeLoss="33.01" rerouteNo="0" devices="tripinfo_flow3.8" vType="vtypeauto" speedFactor="1.10" vaporized=""/>
    <tripinfo id="flow9.9" depart="47.70" departLane="end4_junction_0" departPos="4.10" departSpeed="0.00" departDelay="38.70" arrival="104.10" arrivalLane="junction_end3_0" arrivalPos="489.60" arrivalSpeed="35.91" duration="56.40" routeLength="984.13" waitingTime="0.00" waitingCount="0" stopTime="0.00" timeLoss="27.90" rerouteNo="0" devices="tripinfo_flow9.9" vType="vtypeauto" speedFactor="1.00" vaporized=""/>
    <tripinfo id="flow10.8" depart="45.00" departLane="end4_junction_0" departPos="4.10" departSpeed="0.00" departDelay="37.00" arrival="104.80" arrivalLane="junction_end2_0" arrivalPos="489.60" arrivalSpeed="35.93" duration="59.80" routeLength="995.90" waitingTime="0.00" waitingCount="0" stopTime="0.00" timeLoss="32.11" rerouteNo="0" devices="tripinfo_flow10.8" vType="vtypeauto" speedFactor="1.01" vaporized=""/>
    <tripinfo id="flow3.9" depart="47.40" departLane="end2_junction_0" departPos="4.10" departSpeed="0.00" departDelay="38.40" arrival="106.80" arrivalLane="junction_end1_0" arrivalPos="489.60" arrivalSpeed="34.57" duration="59.40" routeLength="984.13" waitingTime="0.00" waitingCount="0" stopTime="0.00" timeLoss="29.60" rerouteNo="0" devices="tripinfo_flow3.9" vType="vtypeauto" speedFactor="0.87" vaporized=""/>
    <tripinfo id="flow9.10" depart="53.20" departLane="end4_junction_0" departPos="4.10" departSpeed="0.00" departDelay="43.20" arrival="107.90" arrivalLane="junction_end3_0" arrivalPos="489.60" arrivalSpeed="35.93" duration="54.70" routeLength="984.13" waitingTime="0.00" waitingCount="0" stopTime="0.00" timeLoss="26.21" rerouteNo="0" devices="tripinfo_flow9.10" vType="vtypeauto" speedFactor="1.01" vaporized=""/>
    <tripinfo id="flow3.10" depart="52.70" departLane="end2_junction_0" departPos="4.10" departSpeed="0.00" departDelay="42.70" arrival="108.40" arrivalLane="junction_end1_0" arrivalPos="489.60" arrivalSpeed="35.89" duration="55.70" routeLength="984.13" waitingTime="0.00" waitingCount="0" stopTime="0.00" timeLoss="27.18" rerouteNo="0" devices="tripinfo_flow3.10" vType="vtypeauto" speedFactor="1.02" vaporized=""/>
    <tripinfo id="flow10.9" depart="50.40" departLane="end4_junction_0" departPos="4.10" departSpeed="0.00" departDelay="41.40" arrival="108.70" arrivalLane="junction_end2_0" arrivalPos="489.60" arrivalSpeed="35.94" duration="58.30" routeLength="995.90" waitingTime="0.00" waitingCount="0" stopTime="0.00" timeLoss="30.55" rerouteNo="0" devices="tripinfo_flow10.9" vType="vtypeauto" speedFactor="0.99" vaporized=""/>
    <tripinfo id="flow4.9" depart="50.00" departLane="end2_junction_0" departPos="4.10" departSpeed="0.00" departDelay="41.00" arrival="109.20" arrivalLane="junction_end4_0" arrivalPos="489.60" arrivalSpeed="35.90" duration="59.20" routeLength="995.90" waitingTime="0.00" waitingCount="0" stopTime="0.00" timeLoss="31.47" rerouteNo="0" devices="tripinfo_flow4.9" vType="vtypeauto" speedFactor="1.10" vaporized=""/>
    <tripinfo id="flow9.11" depart="58.60" departLane="end4_junction_0" departPos="4.10" departSpeed="0.00" departDelay="47.60" arrival="110.90" arrivalLane="junction_end3_0" arrivalPos="489.60" arrivalSpeed="35.93" duration="52.30" routeLength="984.13" waitingTime="0.00" waitingCount="0" stopTime="0.00" timeLoss="23.95" rerouteNo="0" devices="tripinfo_flow9.11" vType="vtypeauto" speedFactor="1.16" vaporized=""/>
    <tripinfo id="flow4.4" depart="23.50" departLane="end2_junction_0" departPos="4.10" departSpeed="0.00" departDelay="19.50" arrival="111.60" arrivalLane="junction_end4_0" arrivalPos="489.60" arrivalSpeed="35.88" duration="88.10" routeLength="995.90" waitingTime="20.80" waitingCount="2" stopTime="0.00" timeLoss="60.38" rerouteNo="0" devices="tripinfo_flow4.4" vType="vtypeauto" speedFactor="1.02" vaporized=""/>
    <tripinfo id="flow3.11" depart="58.00" departLane="end2_junction_0" departPos="4.10" departSpeed="0.00" departDelay="47.00" arrival="112.20" arrivalLane="junction_end1_0" arrivalPos="489.60" arrivalSpeed="35.98" duration="54.20" routeLength="984.13" waitingTime="0.00" waitingCount="0" stopTime="0.00" timeLoss="25.67" rerouteNo="0" devices="tripinfo_flow3.11" vType="vtypeauto" speedFactor="1.01" vaporized=""/>
    <tripinfo id="flow4.8" depart="44.70" departLane="end2_junction_0" departPos="4.10" departSpeed="0.00" departDelay="36.70" arrival="112.70" arrivalLane="junction_end4_1" arrivalPos="489.60" arrivalSpeed="35.98" duration="68.00" routeLength="995.90" waitingTime="2.90" waitingCount="1" stopTime="0.00" timeLoss="40.31" rerouteNo="0" devices="tripinfo_flow4.8" vType="vtypeauto" speedFactor="1.06" vaporized=""/>
    <tripinfo id="flow4.10" depart="55.30" departLane="end2_junction_0" departPos="4.10" departSpeed="0.00" departDelay="45.30" arrival="113.80" arrivalLane="junction_end4_0" arrivalPos="489.60" arrivalSpeed="35.92" duration="58.50" routeLength="995.90" waitingTime="0.00" waitingCount="0" stopTime="0.00" timeLoss="30.82" rerouteNo="0" devices="tripinfo_flow4.10" vType="vtypeauto" speedFactor="1.06" vaporized=""/>
    <tripinfo id="flow10.2" depart="13.30" departLane="end4_junction_0" departPos="4.10" departSpeed="0.00" departDelay="11.30" arrival="114.80" arrivalLane="junction_end2_0" arrivalPos="489.60" arrivalSpeed="35.95" duration="101.50" routeLength="995.90" waitingTime="36.70" waitingCount="2" stopTime="0.00" timeLoss="73.80" rerouteNo="0" devices="tripinfo_flow10.2" vType="vtypeauto" speedFactor="0.99" vaporized=""/>
    <tripinfo id="flow10.4" depart="23.80" departLane="end4_junction_0" departPos="4.10" departSpeed="0.00" departDelay="19.80" arrival="115.70" arrivalLane="junction_end2_1" arrivalPos="489.60" arrivalSpeed="35.96" duration="91.90" routeLength="995.90" waitingTime="18.70" waitingCount="2" stopTime="0.00" timeLoss="64.22" rerouteNo="0" devices="tripinfo_flow10.4" vType="vtypeauto" speedFactor="1.02" vaporized=""/>
    <tripinfo id="flow10.6" depart="34.40" departLane="end4_junction_0" departPos="4.10" departSpeed="0.00" departDelay="28.40" arrival="117.00" arrivalLane="junction_end2_0" arrivalPos="489.60" arrivalSpeed="35.94" duration="82.60" routeLength="995.90" waitingTime="3.90" waitingCount="1" stopTime="0.00" timeLoss="54.84" rerouteNo="0" devices="tripinfo_flow10.6" vType="vtypeauto" speedFactor="1.02" vaporized=""/>
    <tripinfo id="flow10.10" depart="55.90" departLane="end4_junction_0" departPos="4.10" departSpeed="0.00" departDelay="45.90" arrival="117.90" arrivalLane="junction_end2_1" arrivalPos="489.60" arrivalSpeed="35.89" duration="62.00" routeLength="995.90" waitingTime="0.00" waitingCount="0" stopTime="0.00" timeLoss="34.27" rerouteNo="0" devices="tripinfo_flow10.10" vType="vtypeauto" speedFactor="1.03" vaporized=""/>
    <tripinfo id="flow3.12" depart="63.30" departLane="end2_junction_0" departPos="4.10" departSpeed="0.00" departDelay="51.30" arrival="118.90" arrivalLane="junction_end1_0" arrivalPos="489.60" arrivalSpeed="35.89" duration="55.60" routeLength="984.13" waitingTime="0.00" waitingCount="0" stopTime="0.00" timeLoss="27.06" rerouteNo="0" devices="tripinfo_flow3.12" vType="vtypeauto" speedFactor="1.00" vaporized=""/>
    <tripinfo id="flow4.11" depart="60.60" departLane="end2_junction_0" departPos="4.10" departSpeed="0.00" departDelay="49.60" arrival="119.10" arrivalLane="junction_end4_0" arrivalPos="489.60" arrivalSpeed="35.93" duration="58.50" routeLength="995.90" waitingTime="0.00" waitingCount="0" stopTime="0.00" timeLoss="30.78" rerouteNo="0" devices="tripinfo_flow4.11" vType="vtypeauto" speedFactor="1.12" vaporized=""/>
    <tripinfo id="flow4.12" depart="66.00" departLane="end2_junction_0" departPos="4.10" departSpeed="0.00" departDelay="54.00" arrival="121.80" arrivalLane="junction_end4_0" arrivalPos="489.60" arrivalSpeed="35.98" duration="55.80" routeLength="995.90" waitingTime="0.00" waitingCount="0" stopTime="0.00" timeLoss="28.09" rerouteNo="0" devices="tripinfo_flow4.12" vType="vtypeauto" speedFactor="0.97" vaporized=""/>
    <tripinfo id="flow9.12" depart="63.90" departLane="end4_junction_0" departPos="4.10" departSpeed="0.00" departDelay="51.90" arrival="121.80" arrivalLane="junction_end3_0" arrivalPos="489.60" arrivalSpeed="35.89" duration="57.90" routeLength="984.13" waitingTime="0.00" waitingCount="0" stopTime="0.00" timeLoss="29.26" rerouteNo="0" devices="tripinfo_flow9.12" vType="vtypeauto" speedFactor="0.93" vaporized=""/>
    <tripinfo id="flow3.13" depart="68.70" departLane="end2_junction_0" departPos="4.10" departSpeed="0.00" departDelay="55.70" arrival="121.90" arrivalLane="junction_end1_0" arrivalPos="489.60" arrivalSpeed="35.90" duration="53.20" routeLength="984.13" waitingTime="0.00" waitingCount="0" stopTime="0.00" timeLoss="24.92" rerouteNo="0" devices="tripinfo_flow3.13" vType="vtypeauto" speedFactor="1.14" vaporized=""/>
    <tripinfo id="flow10.11" depart="61.20" departLane="end4_junction_0" departPos="4.10" departSpeed="0.00" departDelay="50.20" arrival="122.50" arrivalLane="junction_end2_0" arrivalPos="489.60" arrivalSpeed="35.88" duration="61.30" routeLength="995.90" waitingTime="0.00" waitingCount="0" stopTime="0.00" timeLoss="33.56" rerouteNo="0" devices="tripinfo_flow10.11" vType="vtypeauto" speedFactor="0.94" vaporized=""/>
    <tripinfo id="flow9.13" depart="69.20" departLane="end4_junction_0" departPos="4.10" departSpeed="0.00" departDelay="56.20" arrival="125.70" arrivalLane="junction_end3_0" arrivalPos="489.60" arrivalSpeed="35.88" duration="56.50" routeLength="984.13" waitingTime="0.00" waitingCount="0" stopTime="0.00" timeLoss="27.85" rerouteNo="0" devices="tripinfo_flow9.13" vType="vtypeauto" speedFactor="0.91" vaporized=""/>