<?xml version="1.0" encoding="UTF-8"?>

<!-- generated on 2024-10-28 18:57:41 by Eclipse SUMO sumo Version 1.20.0
<configuration xmlns:xsi="http://www.w3.org/2001/XMLSchema-instance" xsi:noNamespaceSchemaLocation="http://sumo.dlr.de/xsd/sumoConfiguration.xsd">

    <input>
        <net-file value="./sim_cfg_2_lanes/4way.net.xml"/>
        <route-files value="./sim_cfg_2_lanes/12x0.16.rou.xml"/>
    </input>

    <output>
        <tripinfo-output value="./sim_cfg_2_lanes/tripinfo-platooning_0.242.xml"/>
    </output>

    <time>
        <begin value="0"/>
        <end value="500"/>
        <step-length value="0.1"/>
    </time>

    <traci_server>
        <remote-port value="49299"/>
    </traci_server>

    <gui_only>
        <gui-settings-file value="./sim_cfg_2_lanes/gui_settings.xml"/>
    </gui_only>

</configuration>
-->

<tripinfos xmlns:xsi="http://www.w3.org/2001/XMLSchema-instance" xsi:noNamespaceSchemaLocation="http://sumo.dlr.de/xsd/tripinfo_file.xsd">
    <tripinfo id="flow1.0" depart="2.70" departLane="end1_junction_0" departPos="4.10" departSpeed="0.00" departDelay="2.70" arrival="40.80" arrivalLane="junction_end3_1" arrivalPos="489.60" arrivalSpeed="35.97" duration="38.10" routeLength="995.90" waitingTime="0.00" waitingCount="0" stopTime="0.00" timeLoss="10.39" rerouteNo="0" devices="tripinfo_flow1.0" vType="vtypeauto" speedFactor="0.94" vaporized=""/>
    <tripinfo id="flow7.0" depart="2.80" departLane="end3_junction_0" departPos="4.10" departSpeed="0.00" departDelay="2.80" arrival="42.30" arrivalLane="junction_end1_0" arrivalPos="489.60" arrivalSpeed="35.32" duration="39.50" routeLength="995.90" waitingTime="0.00" waitingCount="0" stopTime="0.00" timeLoss="11.35" rerouteNo="0" devices="tripinfo_flow7.0" vType="vtypeauto" speedFactor="0.89" vaporized=""/>
    <tripinfo id="flow0.0" depart="0.00" departLane="end1_junction_0" departPos="4.10" departSpeed="0.00" departDelay="0.00" arrival="45.40" arrivalLane="junction_end4_0" arrivalPos="489.60" arrivalSpeed="35.93" duration="45.40" routeLength="984.13" waitingTime="0.00" waitingCount="0" stopTime="0.00" timeLoss="17.02" rerouteNo="0" devices="tripinfo_flow0.0" vType="vtypeauto" speedFactor="1.06" vaporized=""/>
    <tripinfo id="flow6.0" depart="0.00" departLane="end3_junction_0" departPos="4.10" departSpeed="0.00" departDelay="0.00" arrival="45.60" arrivalLane="junction_end2_0" arrivalPos="489.60" arrivalSpeed="35.92" duration="45.60" routeLength="984.13" waitingTime="0.00" waitingCount="0" stopTime="0.00" timeLoss="17.19" rerouteNo="0" devices="tripinfo_flow6.0" vType="vtypeauto" speedFactor="1.05" vaporized=""/>
    <tripinfo id="flow0.1" depart="6.00" departLane="end1_junction_0" departPos="4.10" departSpeed="0.00" departDelay="0.00" arrival="52.10" arrivalLane="junction_end4_0" arrivalPos="489.60" arrivalSpeed="35.93" duration="46.10" routeLength="984.13" waitingTime="0.00" waitingCount="0" stopTime="0.00" timeLoss="17.65" rerouteNo="0" devices="tripinfo_flow0.1" vType="vtypeauto" speedFactor="1.05" vaporized=""/>
    <tripinfo id="flow6.1" depart="6.00" departLane="end3_junction_0" departPos="4.10" departSpeed="0.00" departDelay="0.00" arrival="53.00" arrivalLane="junction_end2_0" arrivalPos="489.60" arrivalSpeed="35.93" duration="47.00" routeLength="984.13" waitingTime="0.00" waitingCount="0" stopTime="0.00" timeLoss="18.47" rerouteNo="0" devices="tripinfo_flow6.1" vType="vtypeauto" speedFactor="0.94" vaporized=""/>
    <tripinfo id="flow6.2" depart="12.00" departLane="end3_junction_0" departPos="4.10" departSpeed="0.00" departDelay="0.00" arrival="58.40" arrivalLane="junction_end2_0" arrivalPos="489.60" arrivalSpeed="35.99" duration="46.40" routeLength="984.13" waitingTime="0.00" waitingCount="0" stopTime="0.00" timeLoss="18.13" rerouteNo="0" devices="tripinfo_flow6.2" vType="vtypeauto" speedFactor="1.18" vaporized=""/>
    <tripinfo id="flow1.1" depart="8.70" departLane="end1_junction_0" departPos="4.10" departSpeed="0.00" departDelay="2.70" arrival="59.40" arrivalLane="junction_end3_0" arrivalPos="489.60" arrivalSpeed="35.89" duration="50.70" routeLength="995.90" waitingTime="1.60" waitingCount="1" stopTime="0.00" timeLoss="22.98" rerouteNo="0" devices="tripinfo_flow1.1" vType="vtypeauto" speedFactor="1.12" vaporized=""/>
    <tripinfo id="flow0.2" depart="12.00" departLane="end1_junction_0" departPos="4.10" departSpeed="0.00" departDelay="0.00" arrival="62.40" arrivalLane="junction_end4_0" arrivalPos="489.60" arrivalSpeed="32.94" duration="50.40" routeLength="984.13" waitingTime="0.00" waitingCount="0" stopTime="0.00" timeLoss="19.14" rerouteNo="0" devices="tripinfo_flow0.2" vType="vtypeauto" speedFactor="0.83" vaporized=""/>
    <tripinfo id="flow7.1" depart="8.80" departLane="end3_junction_0" departPos="4.10" departSpeed="0.00" departDelay="2.80" arrival="63.20" arrivalLane="junction_end1_0" arrivalPos="489.60" arrivalSpeed="35.99" duration="54.40" routeLength="995.90" waitingTime="4.90" waitingCount="1" stopTime="0.00" timeLoss="26.68" rerouteNo="0" devices="tripinfo_flow7.1" vType="vtypeauto" speedFactor="1.16" vaporized=""/>
    <tripinfo id="flow7.2" depart="14.70" departLane="end3_junction_0" departPos="4.10" departSpeed="0.00" departDelay="2.70" arrival="63.90" arrivalLane="junction_end1_1" arrivalPos="489.60" arrivalSpeed="35.95" duration="49.20" routeLength="995.90" waitingTime="0.00" waitingCount="0" stopTime="0.00" timeLoss="21.45" rerouteNo="0" devices="tripinfo_flow7.2" vType="vtypeauto" speedFactor="1.15" vaporized=""/>
    <tripinfo id="flow0.3" depart="18.00" departLane="end1_junction_0" departPos="4.10" departSpeed="0.00" departDelay="0.00" arrival="66.70" arrivalLane="junction_end4_0" arrivalPos="489.60" arrivalSpeed="35.91" duration="48.70" routeLength="984.13" waitingTime="0.00" waitingCount="0" stopTime="0.00" timeLoss="20.13" rerouteNo="0" devices="tripinfo_flow0.3" vType="vtypeauto" speedFactor="0.97" vaporized=""/>
    <tripinfo id="flow6.3" depart="18.00" departLane="end3_junction_0" departPos="4.10" departSpeed="0.00" departDelay="0.00" arrival="67.20" arrivalLane="junction_end2_0" arrivalPos="489.60" arrivalSpeed="35.90" duration="49.20" routeLength="984.13" waitingTime="0.00" waitingCount="0" stopTime="0.00" timeLoss="20.82" rerouteNo="0" devices="tripinfo_flow6.3" vType="vtypeauto" speedFactor="1.09" vaporized=""/>
    <tripinfo id="flow1.2" depart="14.70" departLane="end1_junction_0" departPos="4.10" departSpeed="0.00" departDelay="2.70" arrival="68.40" arrivalLane="junction_end3_0" arrivalPos="489.60" arrivalSpeed="34.80" duration="53.70" routeLength="995.90" waitingTime="0.00" waitingCount="0" stopTime="0.00" timeLoss="25.10" rerouteNo="0" devices="tripinfo_flow1.2" vType="vtypeauto" speedFactor="0.87" vaporized=""/>
    <tripinfo id="flow2.0" depart="5.50" departLane="end1_junction_0" departPos="4.10" departSpeed="0.00" departDelay="5.50" arrival="73.50" arrivalLane="junction_end2_1" arrivalPos="489.60" arrivalSpeed="35.89" duration="68.00" routeLength="994.45" waitingTime="19.10" waitingCount="1" stopTime="0.00" timeLoss="38.76" rerouteNo="0" devices="tripinfo_flow2.0" vType="vtypeauto" speedFactor="1.01" vaporized=""/>
    <tripinfo id="flow8.0" depart="5.60" departLane="end3_junction_0" departPos="4.10" departSpeed="0.00" departDelay="5.60" arrival="73.50" arrivalLane="junction_end4_1" arrivalPos="489.60" arrivalSpeed="35.98" duration="67.90" routeLength="994.45" waitingTime="19.30" waitingCount="1" stopTime="0.00" timeLoss="38.50" rerouteNo="0" devices="tripinfo_flow8.0" vType="vtypeauto" speedFactor="0.94" vaporized=""/>
    <tripinfo id="flow4.0" depart="2.70" departLane="end2_junction_0" departPos="4.10" departSpeed="0.00" departDelay="2.70" arrival="81.50" arrivalLane="junction_end4_0" arrivalPos="489.60" arrivalSpeed="35.91" duration="78.80" routeLength="995.90" waitingTime="29.80" waitingCount="1" stopTime="0.00" timeLoss="51.12" rerouteNo="0" devices="tripinfo_flow4.0" vType="vtypeauto" speedFactor="1.03" vaporized=""/>
    <tripinfo id="flow3.0" depart="0.00" departLane="end2_junction_0" departPos="4.10" departSpeed="0.00" departDelay="0.00" arrival="81.70" arrivalLane="junction_end1_0" arrivalPos="489.60" arrivalSpeed="35.94" duration="81.70" routeLength="984.13" waitingTime="33.10" waitingCount="1" stopTime="0.00" timeLoss="53.33" rerouteNo="0" devices="tripinfo_flow3.0" vType="vtypeauto" speedFactor="1.08" vaporized=""/>
    <tripinfo id="flow10.0" depart="2.80" departLane="end4_junction_0" departPos="4.10" departSpeed="0.00" departDelay="2.80" arrival="81.70" arrivalLane="junction_end2_0" arrivalPos="489.60" arrivalSpeed="35.97" duration="78.90" routeLength="995.90" waitingTime="29.90" waitingCount="1" stopTime="0.00" timeLoss="51.15" rerouteNo="0" devices="tripinfo_flow10.0" vType="vtypeauto" speedFactor="1.09" vaporized=""/>
    <tripinfo id="flow9.0" depart="0.00" departLane="end4_junction_0" departPos="4.10" departSpeed="0.00" departDelay="0.00" arrival="82.10" arrivalLane="junction_end3_0" arrivalPos="489.60" arrivalSpeed="34.18" duration="82.10" routeLength="984.13" waitingTime="32.80" waitingCount="1" stopTime="0.00" timeLoss="52.05" rerouteNo="0" devices="tripinfo_flow9.0" vType="vtypeauto" speedFactor="0.86" vaporized=""/>
    <tripinfo id="flow10.3" depart="20.70" departLane="end4_junction_0" departPos="4.10" departSpeed="0.00" departDelay="2.70" arrival="83.60" arrivalLane="junction_end2_0" arrivalPos="489.60" arrivalSpeed="35.89" duration="62.90" routeLength="995.90" waitingTime="5.30" waitingCount="1" stopTime="0.00" timeLoss="35.22" rerouteNo="0" devices="tripinfo_flow10.3" vType="vtypeauto" speedFactor="1.00" vaporized=""/>
    <tripinfo id="flow4.3" depart="20.80" departLane="end2_junction_0" departPos="4.10" departSpeed="0.00" departDelay="2.80" arrival="83.90" arrivalLane="junction_end4_0" arrivalPos="489.60" arrivalSpeed="35.91" duration="63.10" routeLength="995.90" waitingTime="4.80" waitingCount="1" stopTime="0.00" timeLoss="35.36" rerouteNo="0" devices="tripinfo_flow4.3" vType="vtypeauto" speedFactor="1.03" vaporized=""/>
    <tripinfo id="flow10.5" depart="32.70" departLane="end4_junction_0" departPos="4.10" departSpeed="0.00" departDelay="2.70" arrival="90.20" arrivalLane="junction_end2_0" arrivalPos="489.60" arrivalSpeed="35.97" duration="57.50" routeLength="995.90" waitingTime="0.00" waitingCount="0" stopTime="0.00" timeLoss="29.78" rerouteNo="0" devices="tripinfo_flow10.5" vType="vtypeauto" speedFactor="1.02" vaporized=""/>
    <tripinfo id="flow10.1" depart="8.90" departLane="end4_junction_0" departPos="4.10" departSpeed="0.00" departDelay="2.90" arrival="91.50" arrivalLane="junction_end2_1" arrivalPos="489.60" arrivalSpeed="35.90" duration="82.60" routeLength="995.90" waitingTime="23.60" waitingCount="2" stopTime="0.00" timeLoss="54.87" rerouteNo="0" devices="tripinfo_flow10.1" vType="vtypeauto" speedFactor="0.97" vaporized=""/>
    <tripinfo id="flow4.5" depart="32.90" departLane="end2_junction_0" departPos="4.10" departSpeed="0.00" departDelay="2.90" arrival="93.00" arrivalLane="junction_end4_0" arrivalPos="489.60" arrivalSpeed="35.88" duration="60.10" routeLength="995.90" waitingTime="0.00" waitingCount="0" stopTime="0.00" timeLoss="32.39" rerouteNo="0" devices="tripinfo_flow4.5" vType="vtypeauto" speedFactor="0.94" vaporized=""/>
    <tripinfo id="flow10.6" depart="38.80" departLane="end4_junction_0" departPos="4.10" departSpeed="0.00" departDelay="2.80" arrival="96.00" arrivalLane="junction_end2_0" arrivalPos="489.60" arrivalSpeed="35.93" duration="57.20" routeLength="995.90" waitingTime="0.00" waitingCount="0" stopTime="0.00" timeLoss="29.48" rerouteNo="0" devices="tripinfo_flow10.6" vType="vtypeauto" speedFactor="1.02" vaporized=""/>
    <tripinfo id="flow4.6" depart="38.80" departLane="end2_junction_0" departPos="4.10" departSpeed="0.00" departDelay="2.80" arrival="96.70" arrivalLane="junction_end4_0" arrivalPos="489.60" arrivalSpeed="35.91" duration="57.90" routeLength="995.90" waitingTime="0.00" waitingCount="0" stopTime="0.00" timeLoss="30.19" rerouteNo="0" devices="tripinfo_flow4.6" vType="vtypeauto" speedFactor="1.03" vaporized=""/>
    <tripinfo id="flow3.1" depart="6.00" departLane="end2_junction_0" departPos="4.10" departSpeed="0.00" departDelay="0.00" arrival="98.00" arrivalLane="junction_end1_1" arrivalPos="489.60" arrivalSpeed="13.92" duration="92.00" routeLength="984.13" waitingTime="21.60" waitingCount="1" stopTime="0.00" timeLoss="42.25" rerouteNo="0" devices="tripinfo_flow3.1" vType="vtypeauto@flow3.1" speedFactor="0.35" vaporized=""/>
    <tripinfo id="flow9.1" depart="6.00" departLane="end4_junction_0" departPos="4.10" departSpeed="0.00" departDelay="0.00" arrival="98.20" arrivalLane="junction_end3_1" arrivalPos="489.60" arrivalSpeed="13.99" duration="92.20" routeLength="984.13" waitingTime="22.50" waitingCount="1" stopTime="0.00" timeLoss="42.42" rerouteNo="0" devices="tripinfo_flow9.1" vType="vtypeauto@flow9.1" speedFactor="0.35" vaporized=""/>
    <tripinfo id="flow3.2" depart="12.00" departLane="end2_junction_0" departPos="4.10" departSpeed="0.00" departDelay="0.00" arrival="98.70" arrivalLane="junction_end1_0" arrivalPos="489.60" arrivalSpeed="13.97" duration="86.70" routeLength="984.13" waitingTime="16.20" waitingCount="1" stopTime="0.00" timeLoss="36.49" rerouteNo="0" devices="tripinfo_flow3.2" vType="vtypeauto@flow3.2" speedFactor="0.35" vaporized=""/>
    <tripinfo id="flow9.2" depart="12.00" departLane="end4_junction_0" departPos="4.10" departSpeed="0.00" departDelay="0.00" arrival="98.80" arrivalLane="junction_end3_0" arrivalPos="489.60" arrivalSpeed="13.90" duration="86.80" routeLength="984.13" waitingTime="16.10" waitingCount="1" stopTime="0.00" timeLoss="36.65" rerouteNo="0" devices="tripinfo_flow9.2" vType="vtypeauto@flow9.2" speedFactor="0.35" vaporized=""/>
    <tripinfo id="flow3.3" depart="18.00" departLane="end2_junction_0" departPos="4.10" departSpeed="0.00" departDelay="0.00" arrival="99.20" arrivalLane="junction_end1_1" arrivalPos="489.60" arrivalSpeed="16.13" duration="81.20" routeLength="984.13" waitingTime="9.40" waitingCount="1" stopTime="0.00" timeLoss="51.99" rerouteNo="0" devices="tripinfo_flow3.3" vType="vtypeauto@flow3.3" speedFactor="2.15" vaporized=""/>
    <tripinfo id="flow10.7" depart="44.80" departLane="end4_junction_0" departPos="4.10" departSpeed="0.00" departDelay="2.80" arrival="99.30" arrivalLane="junction_end2_0" arrivalPos="489.60" arrivalSpeed="35.99" duration="54.50" routeLength="995.90" waitingTime="0.00" waitingCount="0" stopTime="0.00" timeLoss="26.77" rerouteNo="0" devices="tripinfo_flow10.7" vType="vtypeauto" speedFactor="1.09" vaporized=""/>
    <tripinfo id="flow9.3" depart="18.00" departLane="end4_junction_0" departPos="4.10" departSpeed="0.00" departDelay="0.00" arrival="99.40" arrivalLane="junction_end3_1" arrivalPos="489.60" arrivalSpeed="16.15" duration="81.40" routeLength="984.13" waitingTime="10.30" waitingCount="1" stopTime="0.00" timeLoss="52.16" rerouteNo="0" devices="tripinfo_flow9.3" vType="vtypeauto@flow9.3" speedFactor="2.15" vaporized=""/>
    <tripinfo id="flow3.4" depart="24.00" departLane="end2_junction_0" departPos="4.10" departSpeed="0.00" departDelay="0.00" arrival="100.10" arrivalLane="junction_end1_0" arrivalPos="489.60" arrivalSpeed="16.82" duration="76.10" routeLength="984.13" waitingTime="3.00" waitingCount="1" stopTime="0.00" timeLoss="47.81" rerouteNo="0" devices="tripinfo_flow3.4" vType="vtypeauto" speedFactor="1.17" vaporized=""/>
    <tripinfo id="flow9.4" depart="24.00" departLane="end4_junction_0" departPos="4.10" departSpeed="0.00" departDelay="0.00" arrival="100.30" arrivalLane="junction_end3_0" arrivalPos="489.60" arrivalSpeed="17.25" duration="76.30" routeLength="984.13" waitingTime="3.50" waitingCount="1" stopTime="0.00" timeLoss="47.98" rerouteNo="0" devices="tripinfo_flow9.4" vType="vtypeauto" speedFactor="1.14" vaporized=""/>
    <tripinfo id="flow11.0" depart="5.60" departLane="end4_junction_0" departPos="4.10" departSpeed="0.00" departDelay="5.60" arrival="100.60" arrivalLane="junction_end1_1" arrivalPos="489.60" arrivalSpeed="18.55" duration="95.00" routeLength="994.45" waitingTime="26.50" waitingCount="2" stopTime="0.00" timeLoss="65.86" rerouteNo="0" devices="tripinfo_flow11.0" vType="vtypeauto" speedFactor="1.03" vaporized=""/>
    <tripinfo id="flow9.6" depart="36.00" departLane="end4_junction_0" departPos="4.10" departSpeed="0.00" departDelay="0.00" arrival="100.80" arrivalLane="junction_end3_1" arrivalPos="489.60" arrivalSpeed="18.84" duration="64.80" routeLength="984.13" waitingTime="0.00" waitingCount="0" stopTime="0.00" timeLoss="36.29" rerouteNo="0" devices="tripinfo_flow9.6" vType="vtypeauto" speedFactor="1.00" vaporized=""/>
    <tripinfo id="flow3.5" depart="30.00" departLane="end2_junction_0" departPos="4.10" departSpeed="0.00" departDelay="0.00" arrival="101.50" arrivalLane="junction_end1_0" arrivalPos="489.60" arrivalSpeed="18.59" duration="71.50" routeLength="984.13" waitingTime="0.00" waitingCount="0" stopTime="0.00" timeLoss="42.98" rerouteNo="0" devices="tripinfo_flow3.5" vType="vtypeauto" speedFactor="0.99" vaporized=""/>
    <tripinfo id="flow9.5" depart="30.00" departLane="end4_junction_0" departPos="4.10" departSpeed="0.00" departDelay="0.00" arrival="101.60" arrivalLane="junction_end3_0" arrivalPos="489.60" arrivalSpeed="18.84" duration="71.60" routeLength="984.13" waitingTime="0.00" waitingCount="0" stopTime="0.00" timeLoss="43.10" rerouteNo="0" devices="tripinfo_flow9.5" vType="vtypeauto" speedFactor="1.02" vaporized=""/>
    <tripinfo id="flow3.6" depart="36.00" departLane="end2_junction_0" departPos="4.10" departSpeed="0.00" departDelay="0.00" arrival="101.90" arrivalLane="junction_end1_1" arrivalPos="489.60" arrivalSpeed="19.96" duration="65.90" routeLength="984.13" waitingTime="0.00" waitingCount="0" stopTime="0.00" timeLoss="37.39" rerouteNo="0" devices="tripinfo_flow3.6" vType="vtypeauto" speedFactor="0.98" vaporized=""/>
    <tripinfo id="flow9.7" depart="42.00" departLane="end4_junction_0" departPos="4.10" departSpeed="0.00" departDelay="0.00" arrival="102.10" arrivalLane="junction_end3_1" arrivalPos="489.60" arrivalSpeed="20.79" duration="60.10" routeLength="984.13" waitingTime="0.00" waitingCount="0" stopTime="0.00" timeLoss="31.50" rerouteNo="0" devices="tripinfo_flow9.7" vType="vtypeauto" speedFactor="0.92" vaporized=""/>
    <tripinfo id="flow4.2" depart="14.80" departLane="end2_junction_0" departPos="4.10" departSpeed="0.00" departDelay="2.80" arrival="102.90" arrivalLane="junction_end4_0" arrivalPos="489.60" arrivalSpeed="35.97" duration="88.10" routeLength="995.90" waitingTime="23.50" waitingCount="2" stopTime="0.00" timeLoss="60.36" rerouteNo="0" devices="tripinfo_flow4.2" vType="vtypeauto" speedFactor="1.13" vaporized=""/>
    <tripinfo id="flow3.7" depart="42.00" departLane="end2_junction_0" departPos="4.10" departSpeed="0.00" departDelay="0.00" arrival="103.20" arrivalLane="junction_end1_1" arrivalPos="489.60" arrivalSpeed="21.61" duration="61.20" routeLength="984.13" waitingTime="0.00" waitingCount="0" stopTime="0.00" timeLoss="32.76" rerouteNo="0" devices="tripinfo_flow3.7" vType="vtypeauto" speedFactor="1.04" vaporized=""/>
    <tripinfo id="flow9.8" depart="48.00" departLane="end4_junction_0" departPos="4.10" departSpeed="0.00" departDelay="0.00" arrival="103.50" arrivalLane="junction_end3_1" arrivalPos="489.60" arrivalSpeed="23.59" duration="55.50" routeLength="984.13" waitingTime="0.00" waitingCount="0" stopTime="0.00" timeLoss="27.09" rerouteNo="0" devices="tripinfo_flow9.8" vType="vtypeauto" speedFactor="1.07" vaporized=""/>
    <tripinfo id="flow10.2" depart="14.80" departLane="end4_junction_0" departPos="4.10" departSpeed="0.00" departDelay="2.80" arrival="103.80" arrivalLane="junction_end2_1" arrivalPos="489.60" arrivalSpeed="35.90" duration="89.00" routeLength="995.90" waitingTime="21.40" waitingCount="2" stopTime="0.00" timeLoss="61.31" rerouteNo="0" devices="tripinfo_flow10.2" vType="vtypeauto" speedFactor="0.99" vaporized=""/>
    <tripinfo id="flow4.4" depart="26.80" departLane="end2_junction_0" departPos="4.10" departSpeed="0.00" departDelay="2.80" arrival="104.10" arrivalLane="junction_end4_1" arrivalPos="489.60" arrivalSpeed="35.99" duration="77.30" routeLength="995.90" waitingTime="6.80" waitingCount="2" stopTime="0.00" timeLoss="49.61" rerouteNo="0" devices="tripinfo_flow4.4" vType="vtypeauto" speedFactor="1.02" vaporized=""/>
    <tripinfo id="flow10.4" depart="26.80" departLane="end4_junction_0" departPos="4.10" departSpeed="0.00" departDelay="2.80" arrival="104.30" arrivalLane="junction_end2_0" arrivalPos="489.60" arrivalSpeed="35.88" duration="77.50" routeLength="995.90" waitingTime="5.60" waitingCount="1" stopTime="0.00" timeLoss="49.82" rerouteNo="0" devices="tripinfo_flow10.4" vType="vtypeauto" speedFactor="1.02" vaporized=""/>
    <tripinfo id="flow3.8" depart="48.00" departLane="end2_junction_0" departPos="4.10" departSpeed="0.00" departDelay="0.00" arrival="104.40" arrivalLane="junction_end1_0" arrivalPos="489.60" arrivalSpeed="23.97" duration="56.40" routeLength="984.13" waitingTime="0.00" waitingCount="0" stopTime="0.00" timeLoss="28.07" rerouteNo="0" devices="tripinfo_flow3.8" vType="vtypeauto" speedFactor="1.10" vaporized=""/>
    <tripinfo id="flow11.1" depart="11.80" departLane="end4_junction_0" departPos="4.10" departSpeed="0.00" departDelay="5.80" arrival="104.50" arrivalLane="junction_end1_1" arrivalPos="489.60" arrivalSpeed="24.77" duration="92.70" routeLength="994.45" waitingTime="23.70" waitingCount="3" stopTime="0.00" timeLoss="62.94" rerouteNo="0" devices="tripinfo_flow11.1" vType="vtypeauto" speedFactor="0.89" vaporized=""/>
    <tripinfo id="flow4.7" depart="44.70" departLane="end2_junction_0" departPos="4.10" departSpeed="0.00" departDelay="2.70" arrival="105.10" arrivalLane="junction_end4_0" arrivalPos="489.60" arrivalSpeed="35.93" duration="60.40" routeLength="995.90" waitingTime="0.00" waitingCount="0" stopTime="0.00" timeLoss="32.72" rerouteNo="0" devices="tripinfo_flow4.7" vType="vtypeauto" speedFactor="1.01" vaporized=""/>
    <tripinfo id="flow9.9" depart="54.00" departLane="end4_junction_0" departPos="4.10" departSpeed="0.00" departDelay="0.00" arrival="107.80" arrivalLane="junction_end3_0" arrivalPos="489.60" arrivalSpeed="35.99" duration="53.80" routeLength="984.13" waitingTime="0.00" waitingCount="0" stopTime="0.00" timeLoss="25.26" rerouteNo="0" devices="tripinfo_flow9.9" vType="vtypeauto" speedFactor="1.00" vaporized=""/>
    <tripinfo id="flow10.8" depart="50.80" departLane="end4_junction_0" departPos="4.10" departSpeed="0.00" departDelay="2.80" arrival="108.10" arrivalLane="junction_end2_0" arrivalPos="489.60" arrivalSpeed="35.95" duration="57.30" routeLength="995.90" waitingTime="0.00" waitingCount="0" stopTime="0.00" timeLoss="29.61" rerouteNo="0" devices="tripinfo_flow10.8" vType="vtypeauto" speedFactor="1.01" vaporized=""/>
    <tripinfo id="flow3.9" depart="54.00" departLane="end2_junction_0" departPos="4.10" departSpeed="0.00" departDelay="0.00" arrival="109.60" arrivalLane="junction_end1_0" arrivalPos="489.60" arrivalSpeed="34.61" duration="55.60" routeLength="984.13" waitingTime="0.00" waitingCount="0" stopTime="0.00" timeLoss="25.84" rerouteNo="0" devices="tripinfo_flow3.9" vType="vtypeauto" speedFactor="0.87" vaporized=""/>
    <tripinfo id="flow4.8" depart="50.80" departLane="end2_junction_0" departPos="4.10" departSpeed="0.00" departDelay="2.80" arrival="110.00" arrivalLane="junction_end4_0" arrivalPos="489.60" arrivalSpeed="35.94" duration="59.20" routeLength="995.90" waitingTime="0.00" waitingCount="0" stopTime="0.00" timeLoss="31.51" rerouteNo="0" devices="tripinfo_flow4.8" vType="vtypeauto" speedFactor="1.06" vaporized=""/>
    <tripinfo id="flow10.9" depart="56.90" departLane="end4_junction_0" departPos="4.10" departSpeed="0.00" departDelay="2.90" arrival="110.80" arrivalLane="junction_end2_0" arrivalPos="489.60" arrivalSpeed="35.94" duration="53.90" routeLength="995.90" waitingTime="0.00" waitingCount="0" stopTime="0.00" timeLoss="26.21" rerouteNo="0" devices="tripinfo_flow10.9" vType="vtypeauto" speedFactor="0.99" vaporized=""/>
    <tripinfo id="flow4.9" depart="56.90" departLane="end2_junction_0" departPos="4.10" departSpeed="0.00" departDelay="2.90" arrival="110.90" arrivalLane="junction_end4_1" arrivalPos="489.60" arrivalSpeed="35.96" duration="54.00" routeLength="995.90" waitingTime="0.00" waitingCount="0" stopTime="0.00" timeLoss="26.31" rerouteNo="0" devices="tripinfo_flow4.9" vType="vtypeauto" speedFactor="1.10" vaporized=""/>
    <tripinfo id="flow9.10" depart="60.00" departLane="end4_junction_0" departPos="4.10" departSpeed="0.00" departDelay="0.00" arrival="111.90" arrivalLane="junction_end3_1" arrivalPos="489.60" arrivalSpeed="35.98" duration="51.90" routeLength="984.13" waitingTime="0.00" waitingCount="0" stopTime="0.00" timeLoss="23.41" rerouteNo="0" devices="tripinfo_flow9.10" vType="vtypeauto" speedFactor="1.01" vaporized=""/>
    <tripinfo id="flow3.10" depart="62.50" departLane="end2_junction_0" departPos="4.10" departSpeed="0.00" departDelay="2.50" arrival="115.20" arrivalLane="junction_end1_1" arrivalPos="489.60" arrivalSpeed="35.92" duration="52.70" routeLength="984.13" waitingTime="0.00" waitingCount="0" stopTime="0.00" timeLoss="24.15" rerouteNo="0" devices="tripinfo_flow3.10" vType="vtypeauto" speedFactor="1.02" vaporized=""/>
    <tripinfo id="flow11.2" depart="17.60" departLane="end4_junction_0" departPos="4.10" departSpeed="0.00" departDelay="5.60" arrival="116.60" arrivalLane="junction_end1_1" arrivalPos="489.60" arrivalSpeed="35.95" duration="99.00" routeLength="994.45" waitingTime="24.30" waitingCount="3" stopTime="0.00" timeLoss="69.87" rerouteNo="0" devices="tripinfo_flow11.2" vType="vtypeauto" speedFactor="1.02" vaporized=""/>
    <tripinfo id="flow10.10" depart="62.70" departLane="end4_junction_0" departPos="4.10" departSpeed="0.00" departDelay="2.70" arrival="116.60" arrivalLane="junction_end2_0" arrivalPos="489.60" arrivalSpeed="35.95" duration="53.90" routeLength="995.90" waitingTime="0.00" waitingCount="0" stopTime="0.00" timeLoss="26.19" rerouteNo="0" devices="tripinfo_flow10.10" vType="vtypeauto" speedFactor="1.03" vaporized=""/>
    <tripinfo id="flow9.11" depart="66.00" departLane="end4_junction_0" departPos="4.10" departSpeed="0.00" departDelay="0.00" arrival="116.70" arrivalLane="junction_end3_0" arrivalPos="489.60" arrivalSpeed="35.99" duration="50.70" routeLength="984.13" waitingTime="0.00" waitingCount="0" stopTime="0.00" timeLoss="22.34" rerouteNo="0" devices="tripinfo_flow9.11" vType="vtypeauto" speedFactor="1.16" vaporized=""/>
    <tripinfo id="flow5.0" depart="5.50" departLane="end2_junction_0" departPos="4.10" departSpeed="0.00" departDelay="5.50" arrival="117.80" arrivalLane="junction_end3_1" arrivalPos="489.60" arrivalSpeed="33.16" duration="112.30" routeLength="994.45" waitingTime="54.70" waitingCount="2" stopTime="0.00" timeLoss="80.37" rerouteNo="0" devices="tripinfo_flow5.0" vType="vtypeauto" speedFactor="0.83" vaporized=""/>
    <tripinfo id="flow3.11" depart="68.10" departLane="end2_junction_0" departPos="4.10" departSpeed="0.00" departDelay="2.10" arrival="118.80" arrivalLane="junction_end1_0" arrivalPos="489.60" arrivalSpeed="35.99" duration="50.70" routeLength="984.13" waitingTime="0.00" waitingCount="0" stopTime="0.00" timeLoss="22.26" rerouteNo="0" devices="tripinfo_flow3.11" vType="vtypeauto" speedFactor="1.01" vaporized=""/>
    <tripinfo id="flow4.1" depart="8.80" departLane="end2_junction_0" departPos="4.10" departSpeed="0.00" departDelay="2.80" arrival="119.40" arrivalLane="junction_end4_1" arrivalPos="489.60" arrivalSpeed="35.08" duration="110.60" routeLength="995.90" waitingTime="51.60" waitingCount="2" stopTime="0.00" timeLoss="82.22" rerouteNo="0" devices="tripinfo_flow4.1" vType="vtypeauto" speedFactor="0.88" vaporized=""/>
    <tripinfo id="flow4.10" depart="65.30" departLane="end2_junction_0" departPos="4.10" departSpeed="0.00" departDelay="5.30" arrival="120.10" arrivalLane="junction_end4_0" arrivalPos="489.60" arrivalSpeed="35.92" duration="54.80" routeLength="995.90" waitingTime="0.00" waitingCount="0" stopTime="0.00" timeLoss="27.11" rerouteNo="0" devices="tripinfo_flow4.10" vType="vtypeauto" speedFactor="1.06" vaporized=""/>
    <tripinfo id="flow10.11" depart="68.80" departLane="end4_junction_0" departPos="4.10" departSpeed="0.00" departDelay="2.80" arrival="122.40" arrivalLane="junction_end2_0" arrivalPos="489.60" arrivalSpeed="35.97" duration="53.60" routeLength="995.90" waitingTime="0.00" waitingCount="0" stopTime="0.00" timeLoss="25.90" rerouteNo="0" devices="tripinfo_flow10.11" vType="vtypeauto" speedFactor="0.94" vaporized=""/>
    <tripinfo id="flow9.12" depart="72.00" departLane="end4_junction_0" departPos="4.10" departSpeed="0.00" departDelay="0.00" arrival="123.50" arrivalLane="junction_end3_0" arrivalPos="489.60" arrivalSpeed="35.88" duration="51.50" routeLength="984.13" waitingTime="0.00" waitingCount="0" stopTime="0.00" timeLoss="22.92" rerouteNo="0" devices="tripinfo_flow9.12" vType="vtypeauto" speedFactor="0.93" vaporized=""/>
    <tripinfo id="flow5.1" depart="11.50" departLane="end2_junction_0" departPos="4.10" departSpeed="0.00" departDelay="5.50" arrival="123.70" arrivalLane="junction_end3_1" arrivalPos="489.60" arrivalSpeed="35.98" duration="112.20" routeLength="994.45" waitingTime="45.80" waitingCount="3" stopTime="0.00" timeLoss="82.91" rerouteNo="0" devices="tripinfo_flow5.1" vType="vtypeauto" speedFactor="0.94" vaporized=""/>