<?xml version="1.0" encoding="UTF-8"?>

<!-- generated on 2024-10-28 18:41:39 by Eclipse SUMO sumo Version 1.20.0
<configuration xmlns:xsi="http://www.w3.org/2001/XMLSchema-instance" xsi:noNamespaceSchemaLocation="http://sumo.dlr.de/xsd/sumoConfiguration.xsd">

    <input>
        <net-file value="./sim_cfg_2_lanes/4way.net.xml"/>
        <route-files value="./sim_cfg_2_lanes/12x2.rou.xml"/>
    </input>

    <output>
        <tripinfo-output value="./sim_cfg_2_lanes/tripinfo-platooning_2.901.xml"/>
    </output>

    <time>
        <begin value="0"/>
        <end value="500"/>
        <step-length value="0.1"/>
    </time>

    <traci_server>
        <remote-port value="49250"/>
    </traci_server>

    <gui_only>
        <gui-settings-file value="./sim_cfg_2_lanes/gui_settings.xml"/>
    </gui_only>

</configuration>
-->

<tripinfos xmlns:xsi="http://www.w3.org/2001/XMLSchema-instance" xsi:noNamespaceSchemaLocation="http://sumo.dlr.de/xsd/tripinfo_file.xsd">
    <tripinfo id="flow1.0" depart="2.70" departLane="end1_junction_0" departPos="4.10" departSpeed="0.00" departDelay="2.70" arrival="40.40" arrivalLane="junction_end3_1" arrivalPos="489.60" arrivalSpeed="35.97" duration="37.70" routeLength="995.90" waitingTime="0.00" waitingCount="0" stopTime="0.00" timeLoss="9.98" rerouteNo="0" devices="tripinfo_flow1.0" vType="vtypeauto" speedFactor="0.94" vaporized=""/>
    <tripinfo id="flow7.0" depart="2.80" departLane="end3_junction_0" departPos="4.10" departSpeed="0.00" departDelay="2.80" arrival="41.00" arrivalLane="junction_end1_1" arrivalPos="489.60" arrivalSpeed="35.40" duration="38.20" routeLength="995.90" waitingTime="0.00" waitingCount="0" stopTime="0.00" timeLoss="10.05" rerouteNo="0" devices="tripinfo_flow7.0" vType="vtypeauto" speedFactor="0.89" vaporized=""/>
    <tripinfo id="flow6.0" depart="0.00" departLane="end3_junction_0" departPos="4.10" departSpeed="0.00" departDelay="0.00" arrival="45.60" arrivalLane="junction_end2_0" arrivalPos="489.60" arrivalSpeed="35.95" duration="45.60" routeLength="984.13" waitingTime="0.00" waitingCount="0" stopTime="0.00" timeLoss="17.21" rerouteNo="0" devices="tripinfo_flow6.0" vType="vtypeauto" speedFactor="1.05" vaporized=""/>
    <tripinfo id="flow0.0" depart="0.00" departLane="end1_junction_0" departPos="4.10" departSpeed="0.00" departDelay="0.00" arrival="45.70" arrivalLane="junction_end4_0" arrivalPos="489.60" arrivalSpeed="35.97" duration="45.70" routeLength="984.13" waitingTime="0.00" waitingCount="0" stopTime="0.00" timeLoss="17.26" rerouteNo="0" devices="tripinfo_flow0.0" vType="vtypeauto" speedFactor="1.06" vaporized=""/>
    <tripinfo id="flow0.1" depart="5.60" departLane="end1_junction_0" departPos="4.10" departSpeed="0.00" departDelay="5.10" arrival="51.40" arrivalLane="junction_end4_0" arrivalPos="489.60" arrivalSpeed="35.93" duration="45.80" routeLength="984.13" waitingTime="0.00" waitingCount="0" stopTime="0.00" timeLoss="17.25" rerouteNo="0" devices="tripinfo_flow0.1" vType="vtypeauto" speedFactor="1.05" vaporized=""/>
    <tripinfo id="flow6.1" depart="5.70" departLane="end3_junction_0" departPos="4.10" departSpeed="0.00" departDelay="5.20" arrival="52.20" arrivalLane="junction_end2_0" arrivalPos="489.60" arrivalSpeed="35.89" duration="46.50" routeLength="984.13" waitingTime="0.00" waitingCount="0" stopTime="0.00" timeLoss="17.97" rerouteNo="0" devices="tripinfo_flow6.1" vType="vtypeauto" speedFactor="0.94" vaporized=""/>
    <tripinfo id="flow6.2" depart="11.40" departLane="end3_junction_0" departPos="4.10" departSpeed="0.00" departDelay="10.40" arrival="57.70" arrivalLane="junction_end2_0" arrivalPos="489.60" arrivalSpeed="35.89" duration="46.30" routeLength="984.13" waitingTime="0.00" waitingCount="0" stopTime="0.00" timeLoss="18.06" rerouteNo="0" devices="tripinfo_flow6.2" vType="vtypeauto" speedFactor="1.18" vaporized=""/>
    <tripinfo id="flow1.1" depart="8.30" departLane="end1_junction_0" departPos="4.10" departSpeed="0.00" departDelay="7.80" arrival="58.90" arrivalLane="junction_end3_0" arrivalPos="489.60" arrivalSpeed="35.93" duration="50.60" routeLength="995.90" waitingTime="1.30" waitingCount="1" stopTime="0.00" timeLoss="22.91" rerouteNo="0" devices="tripinfo_flow1.1" vType="vtypeauto" speedFactor="1.12" vaporized=""/>
    <tripinfo id="flow7.1" depart="8.50" departLane="end3_junction_0" departPos="4.10" departSpeed="0.00" departDelay="8.00" arrival="61.40" arrivalLane="junction_end1_0" arrivalPos="489.60" arrivalSpeed="35.90" duration="52.90" routeLength="995.90" waitingTime="3.60" waitingCount="1" stopTime="0.00" timeLoss="25.23" rerouteNo="0" devices="tripinfo_flow7.1" vType="vtypeauto" speedFactor="1.16" vaporized=""/>
    <tripinfo id="flow0.2" depart="11.20" departLane="end1_junction_0" departPos="4.10" departSpeed="0.00" departDelay="10.20" arrival="61.70" arrivalLane="junction_end4_0" arrivalPos="489.60" arrivalSpeed="32.97" duration="50.50" routeLength="984.13" waitingTime="0.00" waitingCount="0" stopTime="0.00" timeLoss="19.22" rerouteNo="0" devices="tripinfo_flow0.2" vType="vtypeauto" speedFactor="0.83" vaporized=""/>
    <tripinfo id="flow6.3" depart="17.10" departLane="end3_junction_0" departPos="4.10" departSpeed="0.00" departDelay="15.60" arrival="64.40" arrivalLane="junction_end2_0" arrivalPos="489.60" arrivalSpeed="35.91" duration="47.30" routeLength="984.13" waitingTime="0.00" waitingCount="0" stopTime="0.00" timeLoss="18.99" rerouteNo="0" devices="tripinfo_flow6.3" vType="vtypeauto" speedFactor="1.09" vaporized=""/>
    <tripinfo id="flow0.3" depart="16.90" departLane="end1_junction_0" departPos="4.10" departSpeed="0.00" departDelay="15.40" arrival="65.20" arrivalLane="junction_end4_0" arrivalPos="489.60" arrivalSpeed="35.97" duration="48.30" routeLength="984.13" waitingTime="0.00" waitingCount="0" stopTime="0.00" timeLoss="19.75" rerouteNo="0" devices="tripinfo_flow0.3" vType="vtypeauto" speedFactor="0.97" vaporized=""/>
    <tripinfo id="flow7.2" depart="14.20" departLane="end3_junction_0" departPos="4.10" departSpeed="0.00" departDelay="13.20" arrival="66.60" arrivalLane="junction_end1_0" arrivalPos="489.60" arrivalSpeed="35.96" duration="52.40" routeLength="995.90" waitingTime="0.00" waitingCount="0" stopTime="0.00" timeLoss="24.72" rerouteNo="0" devices="tripinfo_flow7.2" vType="vtypeauto" speedFactor="1.15" vaporized=""/>
    <tripinfo id="flow1.2" depart="14.00" departLane="end1_junction_0" departPos="4.10" departSpeed="0.00" departDelay="13.00" arrival="67.20" arrivalLane="junction_end3_0" arrivalPos="489.60" arrivalSpeed="34.80" duration="53.20" routeLength="995.90" waitingTime="0.00" waitingCount="0" stopTime="0.00" timeLoss="24.66" rerouteNo="0" devices="tripinfo_flow1.2" vType="vtypeauto" speedFactor="0.87" vaporized=""/>
    <tripinfo id="flow6.4" depart="22.80" departLane="end3_junction_0" departPos="4.10" departSpeed="0.00" departDelay="20.80" arrival="71.10" arrivalLane="junction_end2_0" arrivalPos="489.60" arrivalSpeed="35.94" duration="48.30" routeLength="984.13" waitingTime="0.00" waitingCount="0" stopTime="0.00" timeLoss="19.89" rerouteNo="0" devices="tripinfo_flow6.4" vType="vtypeauto" speedFactor="1.00" vaporized=""/>
    <tripinfo id="flow0.4" depart="22.50" departLane="end1_junction_0" departPos="4.10" departSpeed="0.00" departDelay="20.50" arrival="72.10" arrivalLane="junction_end4_0" arrivalPos="489.60" arrivalSpeed="34.99" duration="49.60" routeLength="984.13" waitingTime="0.00" waitingCount="0" stopTime="0.00" timeLoss="20.16" rerouteNo="0" devices="tripinfo_flow0.4" vType="vtypeauto" speedFactor="0.88" vaporized=""/>
    <tripinfo id="flow8.0" depart="5.60" departLane="end3_junction_0" departPos="4.10" departSpeed="0.00" departDelay="5.60" arrival="73.40" arrivalLane="junction_end4_1" arrivalPos="489.60" arrivalSpeed="35.95" duration="67.80" routeLength="994.45" waitingTime="19.20" waitingCount="1" stopTime="0.00" timeLoss="38.45" rerouteNo="0" devices="tripinfo_flow8.0" vType="vtypeauto" speedFactor="0.94" vaporized=""/>
    <tripinfo id="flow2.0" depart="5.50" departLane="end1_junction_0" departPos="4.10" departSpeed="0.00" departDelay="5.50" arrival="73.50" arrivalLane="junction_end2_1" arrivalPos="489.60" arrivalSpeed="36.00" duration="68.00" routeLength="994.45" waitingTime="18.80" waitingCount="1" stopTime="0.00" timeLoss="38.81" rerouteNo="0" devices="tripinfo_flow2.0" vType="vtypeauto" speedFactor="1.01" vaporized=""/>
    <tripinfo id="flow4.0" depart="2.70" departLane="end2_junction_0" departPos="4.10" departSpeed="0.00" departDelay="2.70" arrival="81.50" arrivalLane="junction_end4_1" arrivalPos="489.60" arrivalSpeed="35.96" duration="78.80" routeLength="995.90" waitingTime="29.70" waitingCount="1" stopTime="0.00" timeLoss="51.11" rerouteNo="0" devices="tripinfo_flow4.0" vType="vtypeauto" speedFactor="1.03" vaporized=""/>
    <tripinfo id="flow10.0" depart="2.80" departLane="end4_junction_0" departPos="4.10" departSpeed="0.00" departDelay="2.80" arrival="81.50" arrivalLane="junction_end2_1" arrivalPos="489.60" arrivalSpeed="35.90" duration="78.70" routeLength="995.90" waitingTime="29.80" waitingCount="1" stopTime="0.00" timeLoss="50.98" rerouteNo="0" devices="tripinfo_flow10.0" vType="vtypeauto" speedFactor="1.09" vaporized=""/>
    <tripinfo id="flow3.0" depart="0.00" departLane="end2_junction_0" departPos="4.10" departSpeed="0.00" departDelay="0.00" arrival="81.70" arrivalLane="junction_end1_0" arrivalPos="489.60" arrivalSpeed="35.99" duration="81.70" routeLength="984.13" waitingTime="32.90" waitingCount="1" stopTime="0.00" timeLoss="53.30" rerouteNo="0" devices="tripinfo_flow3.0" vType="vtypeauto" speedFactor="1.08" vaporized=""/>
    <tripinfo id="flow9.0" depart="0.00" departLane="end4_junction_0" departPos="4.10" departSpeed="0.00" departDelay="0.00" arrival="82.10" arrivalLane="junction_end3_0" arrivalPos="489.60" arrivalSpeed="34.26" duration="82.10" routeLength="984.13" waitingTime="32.70" waitingCount="1" stopTime="0.00" timeLoss="51.99" rerouteNo="0" devices="tripinfo_flow9.0" vType="vtypeauto" speedFactor="0.86" vaporized=""/>
    <tripinfo id="flow4.3" depart="19.50" departLane="end2_junction_0" departPos="4.10" departSpeed="0.00" departDelay="18.00" arrival="83.80" arrivalLane="junction_end4_0" arrivalPos="489.60" arrivalSpeed="35.93" duration="64.30" routeLength="995.90" waitingTime="6.50" waitingCount="1" stopTime="0.00" timeLoss="36.61" rerouteNo="0" devices="tripinfo_flow4.3" vType="vtypeauto" speedFactor="1.03" vaporized=""/>
    <tripinfo id="flow10.3" depart="19.70" departLane="end4_junction_0" departPos="4.10" departSpeed="0.00" departDelay="18.20" arrival="84.00" arrivalLane="junction_end2_0" arrivalPos="489.60" arrivalSpeed="35.90" duration="64.30" routeLength="995.90" waitingTime="6.70" waitingCount="1" stopTime="0.00" timeLoss="36.60" rerouteNo="0" devices="tripinfo_flow10.3" vType="vtypeauto" speedFactor="1.00" vaporized=""/>
    <tripinfo id="flow10.5" depart="31.10" departLane="end4_junction_0" departPos="4.10" departSpeed="0.00" departDelay="28.60" arrival="90.80" arrivalLane="junction_end2_0" arrivalPos="489.60" arrivalSpeed="35.96" duration="59.70" routeLength="995.90" waitingTime="0.00" waitingCount="0" stopTime="0.00" timeLoss="31.99" rerouteNo="0" devices="tripinfo_flow10.5" vType="vtypeauto" speedFactor="1.02" vaporized=""/>
    <tripinfo id="flow10.1" depart="8.60" departLane="end4_junction_0" departPos="4.10" departSpeed="0.00" departDelay="8.10" arrival="91.40" arrivalLane="junction_end2_1" arrivalPos="489.60" arrivalSpeed="35.97" duration="82.80" routeLength="995.90" waitingTime="23.90" waitingCount="2" stopTime="0.00" timeLoss="55.12" rerouteNo="0" devices="tripinfo_flow10.1" vType="vtypeauto" speedFactor="0.97" vaporized=""/>
    <tripinfo id="flow4.5" depart="30.70" departLane="end2_junction_0" departPos="4.10" departSpeed="0.00" departDelay="28.20" arrival="92.90" arrivalLane="junction_end4_0" arrivalPos="489.60" arrivalSpeed="35.89" duration="62.20" routeLength="995.90" waitingTime="0.00" waitingCount="0" stopTime="0.00" timeLoss="34.44" rerouteNo="0" devices="tripinfo_flow4.5" vType="vtypeauto" speedFactor="0.94" vaporized=""/>
    <tripinfo id="flow4.6" depart="36.40" departLane="end2_junction_0" departPos="4.10" departSpeed="0.00" departDelay="33.40" arrival="96.80" arrivalLane="junction_end4_0" arrivalPos="489.60" arrivalSpeed="35.88" duration="60.40" routeLength="995.90" waitingTime="0.00" waitingCount="0" stopTime="0.00" timeLoss="32.70" rerouteNo="0" devices="tripinfo_flow4.6" vType="vtypeauto" speedFactor="1.03" vaporized=""/>
    <tripinfo id="flow3.1" depart="5.60" departLane="end2_junction_0" departPos="4.10" departSpeed="0.00" departDelay="5.10" arrival="98.00" arrivalLane="junction_end1_1" arrivalPos="489.60" arrivalSpeed="13.88" duration="92.40" routeLength="984.13" waitingTime="21.50" waitingCount="1" stopTime="0.00" timeLoss="42.63" rerouteNo="0" devices="tripinfo_flow3.1" vType="vtypeauto@flow3.1" speedFactor="0.35" vaporized=""/>
    <tripinfo id="flow9.1" depart="5.70" departLane="end4_junction_0" departPos="4.10" departSpeed="0.00" departDelay="5.20" arrival="98.20" arrivalLane="junction_end3_1" arrivalPos="489.60" arrivalSpeed="13.91" duration="92.50" routeLength="984.13" waitingTime="22.90" waitingCount="1" stopTime="0.00" timeLoss="42.72" rerouteNo="0" devices="tripinfo_flow9.1" vType="vtypeauto@flow9.1" speedFactor="0.35" vaporized=""/>
    <tripinfo id="flow3.2" depart="11.10" departLane="end2_junction_0" departPos="4.10" departSpeed="0.00" departDelay="10.10" arrival="98.70" arrivalLane="junction_end1_0" arrivalPos="489.60" arrivalSpeed="13.99" duration="87.60" routeLength="984.13" waitingTime="17.00" waitingCount="1" stopTime="0.00" timeLoss="37.38" rerouteNo="0" devices="tripinfo_flow3.2" vType="vtypeauto@flow3.2" speedFactor="0.35" vaporized=""/>
    <tripinfo id="flow9.2" depart="11.40" departLane="end4_junction_0" departPos="4.10" departSpeed="0.00" departDelay="10.40" arrival="98.80" arrivalLane="junction_end3_0" arrivalPos="489.60" arrivalSpeed="13.88" duration="87.40" routeLength="984.13" waitingTime="16.80" waitingCount="1" stopTime="0.00" timeLoss="37.25" rerouteNo="0" devices="tripinfo_flow9.2" vType="vtypeauto@flow9.2" speedFactor="0.35" vaporized=""/>
    <tripinfo id="flow10.6" depart="36.80" departLane="end4_junction_0" departPos="4.10" departSpeed="0.00" departDelay="33.80" arrival="98.90" arrivalLane="junction_end2_0" arrivalPos="489.60" arrivalSpeed="35.88" duration="62.10" routeLength="995.90" waitingTime="0.00" waitingCount="0" stopTime="0.00" timeLoss="34.42" rerouteNo="0" devices="tripinfo_flow10.6" vType="vtypeauto" speedFactor="1.02" vaporized=""/>
    <tripinfo id="flow3.3" depart="16.80" departLane="end2_junction_0" departPos="4.10" departSpeed="0.00" departDelay="15.30" arrival="99.20" arrivalLane="junction_end1_1" arrivalPos="489.60" arrivalSpeed="16.02" duration="82.40" routeLength="984.13" waitingTime="11.40" waitingCount="1" stopTime="0.00" timeLoss="53.18" rerouteNo="0" devices="tripinfo_flow3.3" vType="vtypeauto@flow3.3" speedFactor="2.15" vaporized=""/>
    <tripinfo id="flow9.3" depart="17.00" departLane="end4_junction_0" departPos="4.10" departSpeed="0.00" departDelay="15.50" arrival="99.40" arrivalLane="junction_end3_1" arrivalPos="489.60" arrivalSpeed="16.13" duration="82.40" routeLength="984.13" waitingTime="11.60" waitingCount="1" stopTime="0.00" timeLoss="53.16" rerouteNo="0" devices="tripinfo_flow9.3" vType="vtypeauto@flow9.3" speedFactor="2.15" vaporized=""/>
    <tripinfo id="flow4.7" depart="42.10" departLane="end2_junction_0" departPos="4.10" departSpeed="0.00" departDelay="38.60" arrival="99.80" arrivalLane="junction_end4_0" arrivalPos="489.60" arrivalSpeed="35.88" duration="57.70" routeLength="995.90" waitingTime="0.00" waitingCount="0" stopTime="0.00" timeLoss="29.99" rerouteNo="0" devices="tripinfo_flow4.7" vType="vtypeauto" speedFactor="1.01" vaporized=""/>
    <tripinfo id="flow10.7" depart="42.40" departLane="end4_junction_0" departPos="4.10" departSpeed="0.00" departDelay="38.90" arrival="99.90" arrivalLane="junction_end2_1" arrivalPos="489.60" arrivalSpeed="35.95" duration="57.50" routeLength="995.90" waitingTime="0.00" waitingCount="0" stopTime="0.00" timeLoss="29.77" rerouteNo="0" devices="tripinfo_flow10.7" vType="vtypeauto" speedFactor="1.09" vaporized=""/>
    <tripinfo id="flow3.4" depart="22.40" departLane="end2_junction_0" departPos="4.10" departSpeed="0.00" departDelay="20.40" arrival="100.10" arrivalLane="junction_end1_0" arrivalPos="489.60" arrivalSpeed="16.83" duration="77.70" routeLength="984.13" waitingTime="4.80" waitingCount="1" stopTime="0.00" timeLoss="49.41" rerouteNo="0" devices="tripinfo_flow3.4" vType="vtypeauto" speedFactor="1.17" vaporized=""/>
    <tripinfo id="flow9.4" depart="22.60" departLane="end4_junction_0" departPos="4.10" departSpeed="0.00" departDelay="20.60" arrival="100.30" arrivalLane="junction_end3_0" arrivalPos="489.60" arrivalSpeed="16.95" duration="77.70" routeLength="984.13" waitingTime="5.10" waitingCount="1" stopTime="0.00" timeLoss="49.31" rerouteNo="0" devices="tripinfo_flow9.4" vType="vtypeauto" speedFactor="1.14" vaporized=""/>
    <tripinfo id="flow11.0" depart="5.60" departLane="end4_junction_0" departPos="4.10" departSpeed="0.00" departDelay="5.60" arrival="100.60" arrivalLane="junction_end1_1" arrivalPos="489.60" arrivalSpeed="18.45" duration="95.00" routeLength="994.45" waitingTime="26.60" waitingCount="2" stopTime="0.00" timeLoss="65.86" rerouteNo="0" devices="tripinfo_flow11.0" vType="vtypeauto" speedFactor="1.03" vaporized=""/>
    <tripinfo id="flow9.6" depart="34.00" departLane="end4_junction_0" departPos="4.10" departSpeed="0.00" departDelay="31.00" arrival="100.80" arrivalLane="junction_end3_1" arrivalPos="489.60" arrivalSpeed="18.90" duration="66.80" routeLength="984.13" waitingTime="0.00" waitingCount="0" stopTime="0.00" timeLoss="38.31" rerouteNo="0" devices="tripinfo_flow9.6" vType="vtypeauto" speedFactor="1.00" vaporized=""/>
    <tripinfo id="flow4.8" depart="47.70" departLane="end2_junction_0" departPos="4.10" departSpeed="0.00" departDelay="43.70" arrival="100.80" arrivalLane="junction_end4_1" arrivalPos="489.60" arrivalSpeed="35.97" duration="53.10" routeLength="995.90" waitingTime="0.00" waitingCount="0" stopTime="0.00" timeLoss="25.36" rerouteNo="0" devices="tripinfo_flow4.8" vType="vtypeauto" speedFactor="1.06" vaporized=""/>
    <tripinfo id="flow3.5" depart="28.00" departLane="end2_junction_0" departPos="4.10" departSpeed="0.00" departDelay="25.50" arrival="101.50" arrivalLane="junction_end1_0" arrivalPos="489.60" arrivalSpeed="18.69" duration="73.50" routeLength="984.13" waitingTime="1.90" waitingCount="1" stopTime="0.00" timeLoss="44.98" rerouteNo="0" devices="tripinfo_flow3.5" vType="vtypeauto" speedFactor="0.99" vaporized=""/>
    <tripinfo id="flow9.5" depart="28.30" departLane="end4_junction_0" departPos="4.10" departSpeed="0.00" departDelay="25.80" arrival="101.60" arrivalLane="junction_end3_0" arrivalPos="489.60" arrivalSpeed="18.69" duration="73.30" routeLength="984.13" waitingTime="1.80" waitingCount="1" stopTime="0.00" timeLoss="44.90" rerouteNo="0" devices="tripinfo_flow9.5" vType="vtypeauto" speedFactor="1.02" vaporized=""/>
    <tripinfo id="flow3.6" depart="33.60" departLane="end2_junction_0" departPos="4.10" departSpeed="0.00" departDelay="30.60" arrival="101.90" arrivalLane="junction_end1_1" arrivalPos="489.60" arrivalSpeed="20.21" duration="68.30" routeLength="984.13" waitingTime="0.00" waitingCount="0" stopTime="0.00" timeLoss="39.78" rerouteNo="0" devices="tripinfo_flow3.6" vType="vtypeauto" speedFactor="0.98" vaporized=""/>
    <tripinfo id="flow9.7" depart="39.60" departLane="end4_junction_0" departPos="4.10" departSpeed="0.00" departDelay="36.10" arrival="102.20" arrivalLane="junction_end3_1" arrivalPos="489.60" arrivalSpeed="21.05" duration="62.60" routeLength="984.13" waitingTime="0.00" waitingCount="0" stopTime="0.00" timeLoss="33.97" rerouteNo="0" devices="tripinfo_flow9.7" vType="vtypeauto" speedFactor="0.92" vaporized=""/>
    <tripinfo id="flow3.7" depart="39.30" departLane="end2_junction_0" departPos="4.10" departSpeed="0.00" departDelay="35.80" arrival="103.10" arrivalLane="junction_end1_1" arrivalPos="489.60" arrivalSpeed="21.76" duration="63.80" routeLength="984.13" waitingTime="0.00" waitingCount="0" stopTime="0.00" timeLoss="35.41" rerouteNo="0" devices="tripinfo_flow3.7" vType="vtypeauto" speedFactor="1.04" vaporized=""/>
    <tripinfo id="flow9.8" depart="45.30" departLane="end4_junction_0" departPos="4.10" departSpeed="0.00" departDelay="41.30" arrival="103.40" arrivalLane="junction_end3_0" arrivalPos="489.60" arrivalSpeed="23.08" duration="58.10" routeLength="984.13" waitingTime="0.00" waitingCount="0" stopTime="0.00" timeLoss="29.70" rerouteNo="0" devices="tripinfo_flow9.8" vType="vtypeauto" speedFactor="1.07" vaporized=""/>
    <tripinfo id="flow3.8" depart="44.90" departLane="end2_junction_0" departPos="4.10" departSpeed="0.00" departDelay="40.90" arrival="104.30" arrivalLane="junction_end1_0" arrivalPos="489.60" arrivalSpeed="23.62" duration="59.40" routeLength="984.13" waitingTime="0.00" waitingCount="0" stopTime="0.00" timeLoss="31.11" rerouteNo="0" devices="tripinfo_flow3.8" vType="vtypeauto" speedFactor="1.10" vaporized=""/>
    <tripinfo id="flow10.8" depart="48.10" departLane="end4_junction_0" departPos="4.10" departSpeed="0.00" departDelay="44.10" arrival="104.40" arrivalLane="junction_end2_0" arrivalPos="489.60" arrivalSpeed="35.92" duration="56.30" routeLength="995.90" waitingTime="0.00" waitingCount="0" stopTime="0.00" timeLoss="28.56" rerouteNo="0" devices="tripinfo_flow10.8" vType="vtypeauto" speedFactor="1.01" vaporized=""/>
    <tripinfo id="flow9.9" depart="51.00" departLane="end4_junction_0" departPos="4.10" departSpeed="0.00" departDelay="46.50" arrival="105.20" arrivalLane="junction_end3_0" arrivalPos="489.60" arrivalSpeed="32.36" duration="54.20" routeLength="984.13" waitingTime="0.00" waitingCount="0" stopTime="0.00" timeLoss="25.78" rerouteNo="0" devices="tripinfo_flow9.9" vType="vtypeauto" speedFactor="1.00" vaporized=""/>
    <tripinfo id="flow3.9" depart="50.60" departLane="end2_junction_0" departPos="4.10" departSpeed="0.00" departDelay="46.10" arrival="106.40" arrivalLane="junction_end1_0" arrivalPos="489.60" arrivalSpeed="34.52" duration="55.80" routeLength="984.13" waitingTime="0.00" waitingCount="0" stopTime="0.00" timeLoss="25.92" rerouteNo="0" devices="tripinfo_flow3.9" vType="vtypeauto" speedFactor="0.87" vaporized=""/>
    <tripinfo id="flow11.1" depart="11.30" departLane="end4_junction_0" departPos="4.10" departSpeed="0.00" departDelay="10.80" arrival="106.90" arrivalLane="junction_end1_1" arrivalPos="489.60" arrivalSpeed="35.48" duration="95.60" routeLength="994.45" waitingTime="29.00" waitingCount="3" stopTime="0.00" timeLoss="65.85" rerouteNo="0" devices="tripinfo_flow11.1" vType="vtypeauto" speedFactor="0.89" vaporized=""/>
    <tripinfo id="flow3.10" depart="56.20" departLane="end2_junction_0" departPos="4.10" departSpeed="0.00" departDelay="51.20" arrival="108.30" arrivalLane="junction_end1_0" arrivalPos="489.60" arrivalSpeed="35.89" duration="52.10" routeLength="984.13" waitingTime="0.00" waitingCount="0" stopTime="0.00" timeLoss="23.64" rerouteNo="0" devices="tripinfo_flow3.10" vType="vtypeauto" speedFactor="1.02" vaporized=""/>
    <tripinfo id="flow9.10" depart="56.60" departLane="end4_junction_0" departPos="4.10" departSpeed="0.00" departDelay="51.60" arrival="108.30" arrivalLane="junction_end3_1" arrivalPos="489.60" arrivalSpeed="35.98" duration="51.70" routeLength="984.13" waitingTime="0.00" waitingCount="0" stopTime="0.00" timeLoss="23.31" rerouteNo="0" devices="tripinfo_flow9.10" vType="vtypeauto" speedFactor="1.01" vaporized=""/>
    <tripinfo id="flow10.2" depart="14.10" departLane="end4_junction_0" departPos="4.10" departSpeed="0.00" departDelay="13.10" arrival="108.80" arrivalLane="junction_end2_1" arrivalPos="489.60" arrivalSpeed="35.96" duration="94.70" routeLength="995.90" waitingTime="27.00" waitingCount="2" stopTime="0.00" timeLoss="66.96" rerouteNo="0" devices="tripinfo_flow10.2" vType="vtypeauto" speedFactor="0.99" vaporized=""/>
    <tripinfo id="flow10.9" depart="53.80" departLane="end4_junction_0" departPos="4.10" departSpeed="0.00" departDelay="49.30" arrival="109.10" arrivalLane="junction_end2_0" arrivalPos="489.60" arrivalSpeed="35.91" duration="55.30" routeLength="995.90" waitingTime="0.00" waitingCount="0" stopTime="0.00" timeLoss="27.55" rerouteNo="0" devices="tripinfo_flow10.9" vType="vtypeauto" speedFactor="0.99" vaporized=""/>
    <tripinfo id="flow4.2" depart="13.90" departLane="end2_junction_0" departPos="4.10" departSpeed="0.00" departDelay="12.90" arrival="109.90" arrivalLane="junction_end4_0" arrivalPos="489.60" arrivalSpeed="36.00" duration="96.00" routeLength="995.90" waitingTime="32.20" waitingCount="2" stopTime="0.00" timeLoss="68.30" rerouteNo="0" devices="tripinfo_flow4.2" vType="vtypeauto" speedFactor="1.13" vaporized=""/>
    <tripinfo id="flow4.4" depart="25.20" departLane="end2_junction_0" departPos="4.10" departSpeed="0.00" departDelay="23.20" arrival="110.90" arrivalLane="junction_end4_1" arrivalPos="489.60" arrivalSpeed="35.88" duration="85.70" routeLength="995.90" waitingTime="16.00" waitingCount="2" stopTime="0.00" timeLoss="58.04" rerouteNo="0" devices="tripinfo_flow4.4" vType="vtypeauto" speedFactor="1.02" vaporized=""/>
    <tripinfo id="flow10.4" depart="25.40" departLane="end4_junction_0" departPos="4.10" departSpeed="0.00" departDelay="23.40" arrival="111.50" arrivalLane="junction_end2_0" arrivalPos="489.60" arrivalSpeed="35.90" duration="86.10" routeLength="995.90" waitingTime="12.10" waitingCount="2" stopTime="0.00" timeLoss="58.36" rerouteNo="0" devices="tripinfo_flow10.4" vType="vtypeauto" speedFactor="1.02" vaporized=""/>
    <tripinfo id="flow4.9" depart="53.40" departLane="end2_junction_0" departPos="4.10" departSpeed="0.00" departDelay="48.90" arrival="112.00" arrivalLane="junction_end4_0" arrivalPos="489.60" arrivalSpeed="35.96" duration="58.60" routeLength="995.90" waitingTime="0.00" waitingCount="0" stopTime="0.00" timeLoss="30.88" rerouteNo="0" devices="tripinfo_flow4.9" vType="vtypeauto" speedFactor="1.10" vaporized=""/>
    <tripinfo id="flow10.10" depart="59.40" departLane="end4_junction_0" departPos="4.10" departSpeed="0.00" departDelay="54.40" arrival="113.70" arrivalLane="junction_end2_0" arrivalPos="489.60" arrivalSpeed="35.89" duration="54.30" routeLength="995.90" waitingTime="0.00" waitingCount="0" stopTime="0.00" timeLoss="26.56" rerouteNo="0" devices="tripinfo_flow10.10" vType="vtypeauto" speedFactor="1.03" vaporized=""/>
    <tripinfo id="flow9.11" depart="62.30" departLane="end4_junction_0" departPos="4.10" departSpeed="0.00" departDelay="56.80" arrival="114.80" arrivalLane="junction_end3_0" arrivalPos="489.60" arrivalSpeed="35.97" duration="52.50" routeLength="984.13" waitingTime="0.00" waitingCount="0" stopTime="0.00" timeLoss="24.19" rerouteNo="0" devices="tripinfo_flow9.11" vType="vtypeauto" speedFactor="1.16" vaporized=""/>
    <tripinfo id="flow4.10" depart="59.00" departLane="end2_junction_0" departPos="4.10" departSpeed="0.00" departDelay="54.00" arrival="116.10" arrivalLane="junction_end4_0" arrivalPos="489.60" arrivalSpeed="36.00" duration="57.10" routeLength="995.90" waitingTime="0.00" waitingCount="0" stopTime="0.00" timeLoss="29.40" rerouteNo="0" devices="tripinfo_flow4.10" vType="vtypeauto" speedFactor="1.06" vaporized=""/>
    <tripinfo id="flow3.11" depart="61.90" departLane="end2_junction_0" departPos="4.10" departSpeed="0.00" departDelay="56.40" arrival="116.40" arrivalLane="junction_end1_0" arrivalPos="489.60" arrivalSpeed="35.88" duration="54.50" routeLength="984.13" waitingTime="0.00" waitingCount="0" stopTime="0.00" timeLoss="26.05" rerouteNo="0" devices="tripinfo_flow3.11" vType="vtypeauto" speedFactor="1.01" vaporized=""/>
    <tripinfo id="flow4.11" depart="64.60" departLane="end2_junction_0" departPos="4.10" departSpeed="0.00" departDelay="59.10" arrival="119.30" arrivalLane="junction_end4_0" arrivalPos="489.60" arrivalSpeed="35.96" duration="54.70" routeLength="995.90" waitingTime="0.00" waitingCount="0" stopTime="0.00" timeLoss="26.97" rerouteNo="0" devices="tripinfo_flow4.11" vType="vtypeauto" speedFactor="1.12" vaporized=""/>
    <tripinfo id="flow10.11" depart="65.10" departLane="end4_junction_0" departPos="4.10" departSpeed="0.00" departDelay="59.60" arrival="119.40" arrivalLane="junction_end2_0" arrivalPos="489.60" arrivalSpeed="35.96" duration="54.30" routeLength="995.90" waitingTime="0.00" waitingCount="0" stopTime="0.00" timeLoss="26.55" rerouteNo="0" devices="tripinfo_flow10.11" vType="vtypeauto" speedFactor="0.94" vaporized=""/>
    <tripinfo id="flow9.12" depart="67.90" departLane="end4_junction_0" departPos="4.10" departSpeed="0.00" departDelay="61.90" arrival="119.90" arrivalLane="junction_end3_0" arrivalPos="489.60" arrivalSpeed="35.99" duration="52.00" routeLength="984.13" waitingTime="0.00" waitingCount="0" stopTime="0.00" timeLoss="23.26" rerouteNo="0" devices="tripinfo_flow9.12" vType="vtypeauto" speedFactor="0.93" vaporized=""/>
    <tripinfo id="flow3.12" depart="67.40" departLane="end2_junction_0" departPos="4.10" departSpeed="0.00" departDelay="61.40" arrival="120.20" arrivalLane="junction_end1_0" arrivalPos="489.60" arrivalSpeed="35.93" duration="52.80" routeLength="984.13" waitingTime="0.00" waitingCount="0" stopTime="0.00" timeLoss="24.36" rerouteNo="0" devices="tripinfo_flow3.12" vType="vtypeauto" speedFactor="1.00" vaporized=""/>