<?xml version="1.0" encoding="UTF-8"?>

<!-- generated on 2024-10-28 18:38:30 by Eclipse SUMO sumo Version 1.20.0
<configuration xmlns:xsi="http://www.w3.org/2001/XMLSchema-instance" xsi:noNamespaceSchemaLocation="http://sumo.dlr.de/xsd/sumoConfiguration.xsd">

    <input>
        <net-file value="./sim_cfg_2_lanes/4way.net.xml"/>
        <route-files value="./sim_cfg_2_lanes/12x2.rou.xml"/>
    </input>

    <output>
        <tripinfo-output value="./sim_cfg_2_lanes/tripinfo_2.901.xml"/>
    </output>

    <time>
        <begin value="0"/>
        <end value="500"/>
        <step-length value="0.1"/>
    </time>

    <traci_server>
        <remote-port value="49238"/>
    </traci_server>

    <gui_only>
        <gui-settings-file value="./sim_cfg_2_lanes/gui_settings.xml"/>
    </gui_only>

</configuration>
-->

<tripinfos xmlns:xsi="http://www.w3.org/2001/XMLSchema-instance" xsi:noNamespaceSchemaLocation="http://sumo.dlr.de/xsd/tripinfo_file.xsd">
    <tripinfo id="flow1.0" depart="2.70" departLane="end1_junction_0" departPos="4.10" departSpeed="0.00" departDelay="2.70" arrival="40.40" arrivalLane="junction_end3_1" arrivalPos="489.60" arrivalSpeed="35.97" duration="37.70" routeLength="995.90" waitingTime="0.00" waitingCount="0" stopTime="0.00" timeLoss="9.98" rerouteNo="0" devices="tripinfo_flow1.0" vType="vtypeauto" speedFactor="0.94" vaporized=""/>
    <tripinfo id="flow7.0" depart="2.80" departLane="end3_junction_0" departPos="4.10" departSpeed="0.00" departDelay="2.80" arrival="41.00" arrivalLane="junction_end1_1" arrivalPos="489.60" arrivalSpeed="35.40" duration="38.20" routeLength="995.90" waitingTime="0.00" waitingCount="0" stopTime="0.00" timeLoss="10.05" rerouteNo="0" devices="tripinfo_flow7.0" vType="vtypeauto" speedFactor="0.89" vaporized=""/>
    <tripinfo id="flow6.0" depart="0.00" departLane="end3_junction_0" departPos="4.10" departSpeed="0.00" departDelay="0.00" arrival="45.60" arrivalLane="junction_end2_0" arrivalPos="489.60" arrivalSpeed="35.95" duration="45.60" routeLength="984.13" waitingTime="0.00" waitingCount="0" stopTime="0.00" timeLoss="17.21" rerouteNo="0" devices="tripinfo_flow6.0" vType="vtypeauto" speedFactor="1.05" vaporized=""/>
    <tripinfo id="flow0.0" depart="0.00" departLane="end1_junction_0" departPos="4.10" departSpeed="0.00" departDelay="0.00" arrival="45.70" arrivalLane="junction_end4_0" arrivalPos="489.60" arrivalSpeed="35.97" duration="45.70" routeLength="984.13" waitingTime="0.00" waitingCount="0" stopTime="0.00" timeLoss="17.26" rerouteNo="0" devices="tripinfo_flow0.0" vType="vtypeauto" speedFactor="1.06" vaporized=""/>
    <tripinfo id="flow0.1" depart="5.60" departLane="end1_junction_0" departPos="4.10" departSpeed="0.00" departDelay="5.10" arrival="51.40" arrivalLane="junction_end4_0" arrivalPos="489.60" arrivalSpeed="35.93" duration="45.80" routeLength="984.13" waitingTime="0.00" waitingCount="0" stopTime="0.00" timeLoss="17.25" rerouteNo="0" devices="tripinfo_flow0.1" vType="vtypeauto" speedFactor="1.05" vaporized=""/>
    <tripinfo id="flow6.1" depart="5.70" departLane="end3_junction_0" departPos="4.10" departSpeed="0.00" departDelay="5.20" arrival="52.20" arrivalLane="junction_end2_0" arrivalPos="489.60" arrivalSpeed="35.89" duration="46.50" routeLength="984.13" waitingTime="0.00" waitingCount="0" stopTime="0.00" timeLoss="17.97" rerouteNo="0" devices="tripinfo_flow6.1" vType="vtypeauto" speedFactor="0.94" vaporized=""/>
    <tripinfo id="flow6.2" depart="11.40" departLane="end3_junction_0" departPos="4.10" departSpeed="0.00" departDelay="10.40" arrival="57.70" arrivalLane="junction_end2_0" arrivalPos="489.60" arrivalSpeed="35.89" duration="46.30" routeLength="984.13" waitingTime="0.00" waitingCount="0" stopTime="0.00" timeLoss="18.06" rerouteNo="0" devices="tripinfo_flow6.2" vType="vtypeauto" speedFactor="1.18" vaporized=""/>
    <tripinfo id="flow1.1" depart="8.30" departLane="end1_junction_0" departPos="4.10" departSpeed="0.00" departDelay="7.80" arrival="58.90" arrivalLane="junction_end3_0" arrivalPos="489.60" arrivalSpeed="35.93" duration="50.60" routeLength="995.90" waitingTime="1.30" waitingCount="1" stopTime="0.00" timeLoss="22.91" rerouteNo="0" devices="tripinfo_flow1.1" vType="vtypeauto" speedFactor="1.12" vaporized=""/>
    <tripinfo id="flow7.1" depart="8.50" departLane="end3_junction_0" departPos="4.10" departSpeed="0.00" departDelay="8.00" arrival="61.40" arrivalLane="junction_end1_0" arrivalPos="489.60" arrivalSpeed="35.89" duration="52.90" routeLength="995.90" waitingTime="3.60" waitingCount="1" stopTime="0.00" timeLoss="25.23" rerouteNo="0" devices="tripinfo_flow7.1" vType="vtypeauto" speedFactor="1.16" vaporized=""/>
    <tripinfo id="flow0.2" depart="11.20" departLane="end1_junction_0" departPos="4.10" departSpeed="0.00" departDelay="10.20" arrival="61.70" arrivalLane="junction_end4_0" arrivalPos="489.60" arrivalSpeed="32.97" duration="50.50" routeLength="984.13" waitingTime="0.00" waitingCount="0" stopTime="0.00" timeLoss="19.22" rerouteNo="0" devices="tripinfo_flow0.2" vType="vtypeauto" speedFactor="0.83" vaporized=""/>
    <tripinfo id="flow6.3" depart="17.10" departLane="end3_junction_0" departPos="4.10" departSpeed="0.00" departDelay="15.60" arrival="64.40" arrivalLane="junction_end2_0" arrivalPos="489.60" arrivalSpeed="35.91" duration="47.30" routeLength="984.13" waitingTime="0.00" waitingCount="0" stopTime="0.00" timeLoss="18.99" rerouteNo="0" devices="tripinfo_flow6.3" vType="vtypeauto" speedFactor="1.09" vaporized=""/>
    <tripinfo id="flow0.3" depart="16.90" departLane="end1_junction_0" departPos="4.10" departSpeed="0.00" departDelay="15.40" arrival="65.20" arrivalLane="junction_end4_0" arrivalPos="489.60" arrivalSpeed="35.97" duration="48.30" routeLength="984.13" waitingTime="0.00" waitingCount="0" stopTime="0.00" timeLoss="19.75" rerouteNo="0" devices="tripinfo_flow0.3" vType="vtypeauto" speedFactor="0.97" vaporized=""/>
    <tripinfo id="flow7.2" depart="14.20" departLane="end3_junction_0" departPos="4.10" departSpeed="0.00" departDelay="13.20" arrival="66.60" arrivalLane="junction_end1_0" arrivalPos="489.60" arrivalSpeed="36.00" duration="52.40" routeLength="995.90" waitingTime="0.00" waitingCount="0" stopTime="0.00" timeLoss="24.72" rerouteNo="0" devices="tripinfo_flow7.2" vType="vtypeauto" speedFactor="1.15" vaporized=""/>
    <tripinfo id="flow1.2" depart="14.00" departLane="end1_junction_0" departPos="4.10" departSpeed="0.00" departDelay="13.00" arrival="67.20" arrivalLane="junction_end3_0" arrivalPos="489.60" arrivalSpeed="34.81" duration="53.20" routeLength="995.90" waitingTime="0.00" waitingCount="0" stopTime="0.00" timeLoss="24.66" rerouteNo="0" devices="tripinfo_flow1.2" vType="vtypeauto" speedFactor="0.87" vaporized=""/>
    <tripinfo id="flow6.4" depart="22.80" departLane="end3_junction_0" departPos="4.10" departSpeed="0.00" departDelay="20.80" arrival="71.10" arrivalLane="junction_end2_0" arrivalPos="489.60" arrivalSpeed="35.95" duration="48.30" routeLength="984.13" waitingTime="0.00" waitingCount="0" stopTime="0.00" timeLoss="19.89" rerouteNo="0" devices="tripinfo_flow6.4" vType="vtypeauto" speedFactor="1.00" vaporized=""/>
    <tripinfo id="flow0.4" depart="22.50" departLane="end1_junction_0" departPos="4.10" departSpeed="0.00" departDelay="20.50" arrival="72.10" arrivalLane="junction_end4_0" arrivalPos="489.60" arrivalSpeed="35.06" duration="49.60" routeLength="984.13" waitingTime="0.00" waitingCount="0" stopTime="0.00" timeLoss="20.16" rerouteNo="0" devices="tripinfo_flow0.4" vType="vtypeauto" speedFactor="0.88" vaporized=""/>
    <tripinfo id="flow8.0" depart="5.60" departLane="end3_junction_0" departPos="4.10" departSpeed="0.00" departDelay="5.60" arrival="73.40" arrivalLane="junction_end4_1" arrivalPos="489.60" arrivalSpeed="35.95" duration="67.80" routeLength="994.45" waitingTime="19.20" waitingCount="1" stopTime="0.00" timeLoss="38.45" rerouteNo="0" devices="tripinfo_flow8.0" vType="vtypeauto" speedFactor="0.94" vaporized=""/>
    <tripinfo id="flow2.0" depart="5.50" departLane="end1_junction_0" departPos="4.10" departSpeed="0.00" departDelay="5.50" arrival="73.50" arrivalLane="junction_end2_1" arrivalPos="489.60" arrivalSpeed="35.91" duration="68.00" routeLength="994.45" waitingTime="18.80" waitingCount="1" stopTime="0.00" timeLoss="38.81" rerouteNo="0" devices="tripinfo_flow2.0" vType="vtypeauto" speedFactor="1.01" vaporized=""/>
    <tripinfo id="flow3.0" depart="0.00" departLane="end2_junction_0" departPos="4.10" departSpeed="0.00" departDelay="0.00" arrival="81.10" arrivalLane="junction_end1_0" arrivalPos="489.60" arrivalSpeed="35.92" duration="81.10" routeLength="984.13" waitingTime="32.90" waitingCount="1" stopTime="0.00" timeLoss="52.70" rerouteNo="0" devices="tripinfo_flow3.0" vType="vtypeauto" speedFactor="1.08" vaporized=""/>
    <tripinfo id="flow4.0" depart="2.70" departLane="end2_junction_0" departPos="4.10" departSpeed="0.00" departDelay="2.70" arrival="81.50" arrivalLane="junction_end4_1" arrivalPos="489.60" arrivalSpeed="35.96" duration="78.80" routeLength="995.90" waitingTime="29.70" waitingCount="1" stopTime="0.00" timeLoss="51.11" rerouteNo="0" devices="tripinfo_flow4.0" vType="vtypeauto" speedFactor="1.03" vaporized=""/>
    <tripinfo id="flow10.0" depart="2.80" departLane="end4_junction_0" departPos="4.10" departSpeed="0.00" departDelay="2.80" arrival="81.50" arrivalLane="junction_end2_1" arrivalPos="489.60" arrivalSpeed="35.94" duration="78.70" routeLength="995.90" waitingTime="29.80" waitingCount="1" stopTime="0.00" timeLoss="51.00" rerouteNo="0" devices="tripinfo_flow10.0" vType="vtypeauto" speedFactor="1.09" vaporized=""/>
    <tripinfo id="flow9.0" depart="0.00" departLane="end4_junction_0" departPos="4.10" departSpeed="0.00" departDelay="0.00" arrival="81.80" arrivalLane="junction_end3_0" arrivalPos="489.60" arrivalSpeed="34.25" duration="81.80" routeLength="984.13" waitingTime="32.70" waitingCount="1" stopTime="0.00" timeLoss="51.73" rerouteNo="0" devices="tripinfo_flow9.0" vType="vtypeauto" speedFactor="0.86" vaporized=""/>
    <tripinfo id="flow3.1" depart="5.60" departLane="end2_junction_0" departPos="4.10" departSpeed="0.00" departDelay="5.10" arrival="83.30" arrivalLane="junction_end1_0" arrivalPos="489.60" arrivalSpeed="35.98" duration="77.70" routeLength="984.13" waitingTime="21.50" waitingCount="1" stopTime="0.00" timeLoss="49.09" rerouteNo="0" devices="tripinfo_flow3.1" vType="vtypeauto" speedFactor="0.93" vaporized=""/>
    <tripinfo id="flow9.1" depart="5.70" departLane="end4_junction_0" departPos="4.10" departSpeed="0.00" departDelay="5.20" arrival="83.30" arrivalLane="junction_end3_0" arrivalPos="489.60" arrivalSpeed="36.00" duration="77.60" routeLength="984.13" waitingTime="22.90" waitingCount="1" stopTime="0.00" timeLoss="49.03" rerouteNo="0" devices="tripinfo_flow9.1" vType="vtypeauto" speedFactor="1.01" vaporized=""/>
    <tripinfo id="flow9.2" depart="11.40" departLane="end4_junction_0" departPos="4.10" departSpeed="0.00" departDelay="10.40" arrival="84.60" arrivalLane="junction_end3_1" arrivalPos="489.60" arrivalSpeed="35.96" duration="73.20" routeLength="984.13" waitingTime="17.20" waitingCount="1" stopTime="0.00" timeLoss="44.96" rerouteNo="0" devices="tripinfo_flow9.2" vType="vtypeauto" speedFactor="1.17" vaporized=""/>
    <tripinfo id="flow3.2" depart="11.10" departLane="end2_junction_0" departPos="4.10" departSpeed="0.00" departDelay="10.10" arrival="85.50" arrivalLane="junction_end1_0" arrivalPos="489.60" arrivalSpeed="35.88" duration="74.40" routeLength="984.13" waitingTime="17.40" waitingCount="1" stopTime="0.00" timeLoss="45.80" rerouteNo="0" devices="tripinfo_flow3.2" vType="vtypeauto" speedFactor="0.95" vaporized=""/>
    <tripinfo id="flow9.3" depart="17.00" departLane="end4_junction_0" departPos="4.10" departSpeed="0.00" departDelay="15.50" arrival="87.20" arrivalLane="junction_end3_0" arrivalPos="489.60" arrivalSpeed="35.90" duration="70.20" routeLength="984.13" waitingTime="12.40" waitingCount="1" stopTime="0.00" timeLoss="41.74" rerouteNo="0" devices="tripinfo_flow9.3" vType="vtypeauto" speedFactor="1.09" vaporized=""/>
    <tripinfo id="flow10.3" depart="19.70" departLane="end4_junction_0" departPos="4.10" departSpeed="0.00" departDelay="18.20" arrival="87.60" arrivalLane="junction_end2_0" arrivalPos="489.60" arrivalSpeed="35.90" duration="67.90" routeLength="995.90" waitingTime="7.70" waitingCount="1" stopTime="0.00" timeLoss="40.16" rerouteNo="0" devices="tripinfo_flow10.3" vType="vtypeauto" speedFactor="1.00" vaporized=""/>
    <tripinfo id="flow3.3" depart="16.80" departLane="end2_junction_0" departPos="4.10" departSpeed="0.00" departDelay="15.30" arrival="87.90" arrivalLane="junction_end1_0" arrivalPos="489.60" arrivalSpeed="35.99" duration="71.10" routeLength="984.13" waitingTime="12.20" waitingCount="1" stopTime="0.00" timeLoss="42.39" rerouteNo="0" devices="tripinfo_flow3.3" vType="vtypeauto" speedFactor="0.90" vaporized=""/>
    <tripinfo id="flow4.3" depart="19.50" departLane="end2_junction_0" departPos="4.10" departSpeed="0.00" departDelay="18.00" arrival="88.70" arrivalLane="junction_end4_0" arrivalPos="489.60" arrivalSpeed="35.94" duration="69.20" routeLength="995.90" waitingTime="7.50" waitingCount="1" stopTime="0.00" timeLoss="41.52" rerouteNo="0" devices="tripinfo_flow4.3" vType="vtypeauto" speedFactor="1.03" vaporized=""/>
    <tripinfo id="flow9.4" depart="22.60" departLane="end4_junction_0" departPos="4.10" departSpeed="0.00" departDelay="20.60" arrival="90.40" arrivalLane="junction_end3_0" arrivalPos="489.60" arrivalSpeed="35.94" duration="67.80" routeLength="984.13" waitingTime="6.30" waitingCount="1" stopTime="0.00" timeLoss="39.46" rerouteNo="0" devices="tripinfo_flow9.4" vType="vtypeauto" speedFactor="1.14" vaporized=""/>
    <tripinfo id="flow3.4" depart="22.40" departLane="end2_junction_0" departPos="4.10" departSpeed="0.00" departDelay="20.40" arrival="90.80" arrivalLane="junction_end1_0" arrivalPos="489.60" arrivalSpeed="35.99" duration="68.40" routeLength="984.13" waitingTime="5.90" waitingCount="1" stopTime="0.00" timeLoss="40.10" rerouteNo="0" devices="tripinfo_flow3.4" vType="vtypeauto" speedFactor="1.17" vaporized=""/>
    <tripinfo id="flow9.5" depart="28.30" departLane="end4_junction_0" departPos="4.10" departSpeed="0.00" departDelay="25.80" arrival="92.80" arrivalLane="junction_end3_0" arrivalPos="489.60" arrivalSpeed="35.92" duration="64.50" routeLength="984.13" waitingTime="3.10" waitingCount="1" stopTime="0.00" timeLoss="36.06" rerouteNo="0" devices="tripinfo_flow9.5" vType="vtypeauto" speedFactor="1.02" vaporized=""/>
    <tripinfo id="flow11.0" depart="5.60" departLane="end4_junction_0" departPos="4.10" departSpeed="0.00" departDelay="5.60" arrival="93.60" arrivalLane="junction_end1_1" arrivalPos="489.60" arrivalSpeed="35.88" duration="88.00" routeLength="994.45" waitingTime="30.40" waitingCount="2" stopTime="0.00" timeLoss="58.84" rerouteNo="0" devices="tripinfo_flow11.0" vType="vtypeauto" speedFactor="1.03" vaporized=""/>
    <tripinfo id="flow10.5" depart="31.10" departLane="end4_junction_0" departPos="4.10" departSpeed="0.00" departDelay="28.60" arrival="93.60" arrivalLane="junction_end2_0" arrivalPos="489.60" arrivalSpeed="35.97" duration="62.50" routeLength="995.90" waitingTime="0.00" waitingCount="0" stopTime="0.00" timeLoss="34.80" rerouteNo="0" devices="tripinfo_flow10.5" vType="vtypeauto" speedFactor="1.02" vaporized=""/>
    <tripinfo id="flow3.5" depart="28.00" departLane="end2_junction_0" departPos="4.10" departSpeed="0.00" departDelay="25.50" arrival="93.70" arrivalLane="junction_end1_0" arrivalPos="489.60" arrivalSpeed="35.88" duration="65.70" routeLength="984.13" waitingTime="3.10" waitingCount="1" stopTime="0.00" timeLoss="37.18" rerouteNo="0" devices="tripinfo_flow3.5" vType="vtypeauto" speedFactor="0.99" vaporized=""/>
    <tripinfo id="flow10.1" depart="8.60" departLane="end4_junction_0" departPos="4.10" departSpeed="0.00" departDelay="8.10" arrival="95.20" arrivalLane="junction_end2_1" arrivalPos="489.60" arrivalSpeed="35.96" duration="86.60" routeLength="995.90" waitingTime="27.70" waitingCount="2" stopTime="0.00" timeLoss="58.85" rerouteNo="0" devices="tripinfo_flow10.1" vType="vtypeauto" speedFactor="0.97" vaporized=""/>
    <tripinfo id="flow3.6" depart="33.60" departLane="end2_junction_0" departPos="4.10" departSpeed="0.00" departDelay="30.60" arrival="95.80" arrivalLane="junction_end1_0" arrivalPos="489.60" arrivalSpeed="35.91" duration="62.20" routeLength="984.13" waitingTime="0.00" waitingCount="0" stopTime="0.00" timeLoss="33.61" rerouteNo="0" devices="tripinfo_flow3.6" vType="vtypeauto" speedFactor="0.98" vaporized=""/>
    <tripinfo id="flow4.5" depart="30.70" departLane="end2_junction_0" departPos="4.10" departSpeed="0.00" departDelay="28.20" arrival="96.70" arrivalLane="junction_end4_0" arrivalPos="489.60" arrivalSpeed="35.99" duration="66.00" routeLength="995.90" waitingTime="0.00" waitingCount="0" stopTime="0.00" timeLoss="38.24" rerouteNo="0" devices="tripinfo_flow4.5" vType="vtypeauto" speedFactor="0.94" vaporized=""/>
    <tripinfo id="flow9.6" depart="34.00" departLane="end4_junction_0" departPos="4.10" departSpeed="0.00" departDelay="31.00" arrival="96.90" arrivalLane="junction_end3_0" arrivalPos="489.60" arrivalSpeed="35.94" duration="62.90" routeLength="984.13" waitingTime="0.00" waitingCount="0" stopTime="0.00" timeLoss="34.38" rerouteNo="0" devices="tripinfo_flow9.6" vType="vtypeauto" speedFactor="1.00" vaporized=""/>
    <tripinfo id="flow3.7" depart="39.30" departLane="end2_junction_0" departPos="4.10" departSpeed="0.00" departDelay="35.80" arrival="99.60" arrivalLane="junction_end1_0" arrivalPos="489.60" arrivalSpeed="35.92" duration="60.30" routeLength="984.13" waitingTime="0.00" waitingCount="0" stopTime="0.00" timeLoss="31.86" rerouteNo="0" devices="tripinfo_flow3.7" vType="vtypeauto" speedFactor="1.04" vaporized=""/>
    <tripinfo id="flow9.7" depart="39.60" departLane="end4_junction_0" departPos="4.10" departSpeed="0.00" departDelay="36.10" arrival="99.70" arrivalLane="junction_end3_0" arrivalPos="489.60" arrivalSpeed="35.95" duration="60.10" routeLength="984.13" waitingTime="0.00" waitingCount="0" stopTime="0.00" timeLoss="31.44" rerouteNo="0" devices="tripinfo_flow9.7" vType="vtypeauto" speedFactor="0.92" vaporized=""/>
    <tripinfo id="flow9.8" depart="45.30" departLane="end4_junction_0" departPos="4.10" departSpeed="0.00" departDelay="41.30" arrival="101.10" arrivalLane="junction_end3_0" arrivalPos="489.60" arrivalSpeed="35.91" duration="55.80" routeLength="984.13" waitingTime="0.00" waitingCount="0" stopTime="0.00" timeLoss="27.37" rerouteNo="0" devices="tripinfo_flow9.8" vType="vtypeauto" speedFactor="1.07" vaporized=""/>
    <tripinfo id="flow3.8" depart="44.90" departLane="end2_junction_0" departPos="4.10" departSpeed="0.00" departDelay="40.90" arrival="101.60" arrivalLane="junction_end1_0" arrivalPos="489.60" arrivalSpeed="35.98" duration="56.70" routeLength="984.13" waitingTime="0.00" waitingCount="0" stopTime="0.00" timeLoss="28.37" rerouteNo="0" devices="tripinfo_flow3.8" vType="vtypeauto" speedFactor="1.10" vaporized=""/>
    <tripinfo id="flow10.7" depart="42.40" departLane="end4_junction_0" departPos="4.10" departSpeed="0.00" departDelay="38.90" arrival="101.70" arrivalLane="junction_end2_0" arrivalPos="489.60" arrivalSpeed="35.88" duration="59.30" routeLength="995.90" waitingTime="0.00" waitingCount="0" stopTime="0.00" timeLoss="31.61" rerouteNo="0" devices="tripinfo_flow10.7" vType="vtypeauto" speedFactor="1.09" vaporized=""/>
    <tripinfo id="flow4.7" depart="42.10" departLane="end2_junction_0" departPos="4.10" departSpeed="0.00" departDelay="38.60" arrival="101.80" arrivalLane="junction_end4_0" arrivalPos="489.60" arrivalSpeed="35.93" duration="59.70" routeLength="995.90" waitingTime="0.00" waitingCount="0" stopTime="0.00" timeLoss="32.03" rerouteNo="0" devices="tripinfo_flow4.7" vType="vtypeauto" speedFactor="1.01" vaporized=""/>
    <tripinfo id="flow10.6" depart="36.80" departLane="end4_junction_0" departPos="4.10" departSpeed="0.00" departDelay="33.80" arrival="102.70" arrivalLane="junction_end2_1" arrivalPos="489.60" arrivalSpeed="35.97" duration="65.90" routeLength="995.90" waitingTime="0.00" waitingCount="0" stopTime="0.00" timeLoss="38.21" rerouteNo="0" devices="tripinfo_flow10.6" vType="vtypeauto" speedFactor="1.02" vaporized=""/>
    <tripinfo id="flow3.9" depart="50.60" departLane="end2_junction_0" departPos="4.10" departSpeed="0.00" departDelay="46.10" arrival="106.60" arrivalLane="junction_end1_0" arrivalPos="489.60" arrivalSpeed="34.57" duration="56.00" routeLength="984.13" waitingTime="0.00" waitingCount="0" stopTime="0.00" timeLoss="26.23" rerouteNo="0" devices="tripinfo_flow3.9" vType="vtypeauto" speedFactor="0.87" vaporized=""/>
    <tripinfo id="flow4.8" depart="47.70" departLane="end2_junction_0" departPos="4.10" departSpeed="0.00" departDelay="43.70" arrival="107.00" arrivalLane="junction_end4_0" arrivalPos="489.60" arrivalSpeed="35.91" duration="59.30" routeLength="995.90" waitingTime="0.00" waitingCount="0" stopTime="0.00" timeLoss="31.55" rerouteNo="0" devices="tripinfo_flow4.8" vType="vtypeauto" speedFactor="1.06" vaporized=""/>
    <tripinfo id="flow9.9" depart="51.00" departLane="end4_junction_0" departPos="4.10" departSpeed="0.00" departDelay="46.50" arrival="107.00" arrivalLane="junction_end3_0" arrivalPos="489.60" arrivalSpeed="35.89" duration="56.00" routeLength="984.13" waitingTime="0.00" waitingCount="0" stopTime="0.00" timeLoss="27.60" rerouteNo="0" devices="tripinfo_flow9.9" vType="vtypeauto" speedFactor="1.00" vaporized=""/>
    <tripinfo id="flow10.8" depart="48.10" departLane="end4_junction_0" departPos="4.10" departSpeed="0.00" departDelay="44.10" arrival="107.40" arrivalLane="junction_end2_0" arrivalPos="489.60" arrivalSpeed="35.88" duration="59.30" routeLength="995.90" waitingTime="0.00" waitingCount="0" stopTime="0.00" timeLoss="31.57" rerouteNo="0" devices="tripinfo_flow10.8" vType="vtypeauto" speedFactor="1.01" vaporized=""/>
    <tripinfo id="flow4.4" depart="25.20" departLane="end2_junction_0" departPos="4.10" departSpeed="0.00" departDelay="23.20" arrival="107.80" arrivalLane="junction_end4_1" arrivalPos="489.60" arrivalSpeed="35.93" duration="82.60" routeLength="995.90" waitingTime="15.20" waitingCount="2" stopTime="0.00" timeLoss="54.85" rerouteNo="0" devices="tripinfo_flow4.4" vType="vtypeauto" speedFactor="1.02" vaporized=""/>
    <tripinfo id="flow4.6" depart="36.40" departLane="end2_junction_0" departPos="4.10" departSpeed="0.00" departDelay="33.40" arrival="108.80" arrivalLane="junction_end4_0" arrivalPos="489.60" arrivalSpeed="35.92" duration="72.40" routeLength="995.90" waitingTime="1.60" waitingCount="1" stopTime="0.00" timeLoss="44.67" rerouteNo="0" devices="tripinfo_flow4.6" vType="vtypeauto" speedFactor="1.03" vaporized=""/>
    <tripinfo id="flow10.9" depart="53.80" departLane="end4_junction_0" departPos="4.10" departSpeed="0.00" departDelay="49.30" arrival="111.00" arrivalLane="junction_end2_0" arrivalPos="489.60" arrivalSpeed="35.95" duration="57.20" routeLength="995.90" waitingTime="0.00" waitingCount="0" stopTime="0.00" timeLoss="29.49" rerouteNo="0" devices="tripinfo_flow10.9" vType="vtypeauto" speedFactor="0.99" vaporized=""/>
    <tripinfo id="flow9.10" depart="56.60" departLane="end4_junction_0" departPos="4.10" departSpeed="0.00" departDelay="51.60" arrival="111.00" arrivalLane="junction_end3_0" arrivalPos="489.60" arrivalSpeed="35.98" duration="54.40" routeLength="984.13" waitingTime="0.00" waitingCount="0" stopTime="0.00" timeLoss="25.87" rerouteNo="0" devices="tripinfo_flow9.10" vType="vtypeauto" speedFactor="1.01" vaporized=""/>
    <tripinfo id="flow10.10" depart="59.40" departLane="end4_junction_0" departPos="4.10" departSpeed="0.00" departDelay="54.40" arrival="113.00" arrivalLane="junction_end2_0" arrivalPos="489.60" arrivalSpeed="35.96" duration="53.60" routeLength="995.90" waitingTime="0.00" waitingCount="0" stopTime="0.00" timeLoss="25.87" rerouteNo="0" devices="tripinfo_flow10.10" vType="vtypeauto" speedFactor="1.03" vaporized=""/>
    <tripinfo id="flow4.9" depart="53.40" departLane="end2_junction_0" departPos="4.10" departSpeed="0.00" departDelay="48.90" arrival="113.10" arrivalLane="junction_end4_0" arrivalPos="489.60" arrivalSpeed="35.96" duration="59.70" routeLength="995.90" waitingTime="0.00" waitingCount="0" stopTime="0.00" timeLoss="32.04" rerouteNo="0" devices="tripinfo_flow4.9" vType="vtypeauto" speedFactor="1.10" vaporized=""/>
    <tripinfo id="flow3.10" depart="56.20" departLane="end2_junction_0" departPos="4.10" departSpeed="0.00" departDelay="51.20" arrival="113.40" arrivalLane="junction_end1_0" arrivalPos="489.60" arrivalSpeed="35.94" duration="57.20" routeLength="984.13" waitingTime="0.00" waitingCount="0" stopTime="0.00" timeLoss="28.76" rerouteNo="0" devices="tripinfo_flow3.10" vType="vtypeauto" speedFactor="1.02" vaporized=""/>
    <tripinfo id="flow9.11" depart="62.30" departLane="end4_junction_0" departPos="4.10" departSpeed="0.00" departDelay="56.80" arrival="114.30" arrivalLane="junction_end3_0" arrivalPos="489.60" arrivalSpeed="35.97" duration="52.00" routeLength="984.13" waitingTime="0.00" waitingCount="0" stopTime="0.00" timeLoss="23.66" rerouteNo="0" devices="tripinfo_flow9.11" vType="vtypeauto" speedFactor="1.16" vaporized=""/>
    <tripinfo id="flow3.11" depart="61.90" departLane="end2_junction_0" departPos="4.10" departSpeed="0.00" departDelay="56.40" arrival="117.40" arrivalLane="junction_end1_0" arrivalPos="489.60" arrivalSpeed="35.99" duration="55.50" routeLength="984.13" waitingTime="0.00" waitingCount="0" stopTime="0.00" timeLoss="27.09" rerouteNo="0" devices="tripinfo_flow3.11" vType="vtypeauto" speedFactor="1.01" vaporized=""/>
    <tripinfo id="flow4.10" depart="59.00" departLane="end2_junction_0" departPos="4.10" departSpeed="0.00" departDelay="54.00" arrival="117.60" arrivalLane="junction_end4_0" arrivalPos="489.60" arrivalSpeed="35.89" duration="58.60" routeLength="995.90" waitingTime="0.00" waitingCount="0" stopTime="0.00" timeLoss="30.85" rerouteNo="0" devices="tripinfo_flow4.10" vType="vtypeauto" speedFactor="1.06" vaporized=""/>
    <tripinfo id="flow10.2" depart="14.10" departLane="end4_junction_0" departPos="4.10" departSpeed="0.00" departDelay="13.10" arrival="119.90" arrivalLane="junction_end2_0" arrivalPos="489.60" arrivalSpeed="35.95" duration="105.80" routeLength="995.90" waitingTime="36.80" waitingCount="3" stopTime="0.00" timeLoss="78.06" rerouteNo="0" devices="tripinfo_flow10.2" vType="vtypeauto" speedFactor="0.99" vaporized=""/>
    <tripinfo id="flow10.4" depart="25.40" departLane="end4_junction_0" departPos="4.10" departSpeed="0.00" departDelay="23.40" arrival="120.90" arrivalLane="junction_end2_1" arrivalPos="489.60" arrivalSpeed="35.92" duration="95.50" routeLength="995.90" waitingTime="16.40" waitingCount="2" stopTime="0.00" timeLoss="67.80" rerouteNo="0" devices="tripinfo_flow10.4" vType="vtypeauto" speedFactor="1.02" vaporized=""/>
    <tripinfo id="flow3.12" depart="67.60" departLane="end2_junction_0" departPos="4.10" departSpeed="0.00" departDelay="61.60" arrival="121.20" arrivalLane="junction_end1_0" arrivalPos="489.60" arrivalSpeed="35.99" duration="53.60" routeLength="984.13" waitingTime="0.00" waitingCount="0" stopTime="0.00" timeLoss="25.20" rerouteNo="0" devices="tripinfo_flow3.12" vType="vtypeauto" speedFactor="1.00" vaporized=""/>
    <tripinfo id="flow4.11" depart="64.70" departLane="end2_junction_0" departPos="4.10" departSpeed="0.00" departDelay="59.20" arrival="121.30" arrivalLane="junction_end4_0" arrivalPos="489.60" arrivalSpeed="35.98" duration="56.60" routeLength="995.90" waitingTime="0.00" waitingCount="0" stopTime="0.00" timeLoss="28.89" rerouteNo="0" devices="tripinfo_flow4.11" vType="vtypeauto" speedFactor="1.12" vaporized=""/>
    <tripinfo id="flow9.12" depart="68.00" departLane="end4_junction_0" departPos="4.10" departSpeed="0.00" departDelay="62.00" arrival="123.70" arrivalLane="junction_end3_0" arrivalPos="489.60" arrivalSpeed="35.92" duration="55.70" routeLength="984.13" waitingTime="0.00" waitingCount="0" stopTime="0.00" timeLoss="27.09" rerouteNo="0" devices="tripinfo_flow9.12" vType="vtypeauto" speedFactor="0.93" vaporized=""/>
    <tripinfo id="flow10.11" depart="65.10" departLane="end4_junction_0" departPos="4.10" departSpeed="0.00" departDelay="59.60" arrival="123.90" arrivalLane="junction_end2_0" arrivalPos="489.60" arrivalSpeed="35.92" duration="58.80" routeLength="995.90" waitingTime="0.00" waitingCount="0" stopTime="0.00" timeLoss="31.14" rerouteNo="0" devices="tripinfo_flow10.11" vType="vtypeauto" speedFactor="0.94" vaporized=""/>
    <tripinfo id="flow3.13" depart="73.30" departLane="end2_junction_0" departPos="4.10" departSpeed="0.00" departDelay="66.80" arrival="124.90" arrivalLane="junction_end1_0" arrivalPos="489.60" arrivalSpeed="35.95" duration="51.60" routeLength="984.13" waitingTime="0.00" waitingCount="0" stopTime="0.00" timeLoss="23.24" rerouteNo="0" devices="tripinfo_flow3.13" vType="vtypeauto" speedFactor="1.14" vaporized=""/>
    <tripinfo id="flow4.2" depart="13.90" departLane="end2_junction_0" departPos="4.10" departSpeed="0.00" departDelay="12.90" arrival="127.20" arrivalLane="junction_end4_0" arrivalPos="489.60" arrivalSpeed="35.96" duration="113.30" routeLength="995.90" waitingTime="49.70" waitingCount="2" stopTime="0.00" timeLoss="85.57" rerouteNo="0" devices="tripinfo_flow4.2" vType="vtypeauto" speedFactor="1.13" vaporized=""/>