<?xml version="1.0" encoding="UTF-8"?>

<!-- generated on 2024-10-28 18:55:49 by Eclipse SUMO sumo Version 1.20.0
<configuration xmlns:xsi="http://www.w3.org/2001/XMLSchema-instance" xsi:noNamespaceSchemaLocation="http://sumo.dlr.de/xsd/sumoConfiguration.xsd">

    <input>
        <net-file value="./sim_cfg_2_lanes/4way.net.xml"/>
        <route-files value="./sim_cfg_2_lanes/12x0.16.rou.xml"/>
    </input>

    <output>
        <tripinfo-output value="./sim_cfg_2_lanes/tripinfo_0.242.xml"/>
    </output>

    <time>
        <begin value="0"/>
        <end value="500"/>
        <step-length value="0.1"/>
    </time>

    <traci_server>
        <remote-port value="49288"/>
    </traci_server>

    <gui_only>
        <gui-settings-file value="./sim_cfg_2_lanes/gui_settings.xml"/>
    </gui_only>

</configuration>
-->

<tripinfos xmlns:xsi="http://www.w3.org/2001/XMLSchema-instance" xsi:noNamespaceSchemaLocation="http://sumo.dlr.de/xsd/tripinfo_file.xsd">
    <tripinfo id="flow1.0" depart="2.70" departLane="end1_junction_0" departPos="4.10" departSpeed="0.00" departDelay="2.70" arrival="40.80" arrivalLane="junction_end3_1" arrivalPos="489.60" arrivalSpeed="35.97" duration="38.10" routeLength="995.90" waitingTime="0.00" waitingCount="0" stopTime="0.00" timeLoss="10.39" rerouteNo="0" devices="tripinfo_flow1.0" vType="vtypeauto" speedFactor="0.94" vaporized=""/>
    <tripinfo id="flow7.0" depart="2.80" departLane="end3_junction_0" departPos="4.10" departSpeed="0.00" departDelay="2.80" arrival="42.30" arrivalLane="junction_end1_0" arrivalPos="489.60" arrivalSpeed="35.32" duration="39.50" routeLength="995.90" waitingTime="0.00" waitingCount="0" stopTime="0.00" timeLoss="11.35" rerouteNo="0" devices="tripinfo_flow7.0" vType="vtypeauto" speedFactor="0.89" vaporized=""/>
    <tripinfo id="flow0.0" depart="0.00" departLane="end1_junction_0" departPos="4.10" departSpeed="0.00" departDelay="0.00" arrival="45.40" arrivalLane="junction_end4_0" arrivalPos="489.60" arrivalSpeed="35.93" duration="45.40" routeLength="984.13" waitingTime="0.00" waitingCount="0" stopTime="0.00" timeLoss="17.02" rerouteNo="0" devices="tripinfo_flow0.0" vType="vtypeauto" speedFactor="1.06" vaporized=""/>
    <tripinfo id="flow6.0" depart="0.00" departLane="end3_junction_0" departPos="4.10" departSpeed="0.00" departDelay="0.00" arrival="45.60" arrivalLane="junction_end2_0" arrivalPos="489.60" arrivalSpeed="35.92" duration="45.60" routeLength="984.13" waitingTime="0.00" waitingCount="0" stopTime="0.00" timeLoss="17.19" rerouteNo="0" devices="tripinfo_flow6.0" vType="vtypeauto" speedFactor="1.05" vaporized=""/>
    <tripinfo id="flow0.1" depart="6.00" departLane="end1_junction_0" departPos="4.10" departSpeed="0.00" departDelay="0.00" arrival="52.10" arrivalLane="junction_end4_0" arrivalPos="489.60" arrivalSpeed="35.93" duration="46.10" routeLength="984.13" waitingTime="0.00" waitingCount="0" stopTime="0.00" timeLoss="17.65" rerouteNo="0" devices="tripinfo_flow0.1" vType="vtypeauto" speedFactor="1.05" vaporized=""/>
    <tripinfo id="flow6.1" depart="6.00" departLane="end3_junction_0" departPos="4.10" departSpeed="0.00" departDelay="0.00" arrival="53.00" arrivalLane="junction_end2_0" arrivalPos="489.60" arrivalSpeed="35.93" duration="47.00" routeLength="984.13" waitingTime="0.00" waitingCount="0" stopTime="0.00" timeLoss="18.47" rerouteNo="0" devices="tripinfo_flow6.1" vType="vtypeauto" speedFactor="0.94" vaporized=""/>
    <tripinfo id="flow6.2" depart="12.00" departLane="end3_junction_0" departPos="4.10" departSpeed="0.00" departDelay="0.00" arrival="58.40" arrivalLane="junction_end2_0" arrivalPos="489.60" arrivalSpeed="35.99" duration="46.40" routeLength="984.13" waitingTime="0.00" waitingCount="0" stopTime="0.00" timeLoss="18.13" rerouteNo="0" devices="tripinfo_flow6.2" vType="vtypeauto" speedFactor="1.18" vaporized=""/>
    <tripinfo id="flow1.1" depart="8.70" departLane="end1_junction_0" departPos="4.10" departSpeed="0.00" departDelay="2.70" arrival="59.40" arrivalLane="junction_end3_0" arrivalPos="489.60" arrivalSpeed="35.89" duration="50.70" routeLength="995.90" waitingTime="1.60" waitingCount="1" stopTime="0.00" timeLoss="22.98" rerouteNo="0" devices="tripinfo_flow1.1" vType="vtypeauto" speedFactor="1.12" vaporized=""/>
    <tripinfo id="flow0.2" depart="12.00" departLane="end1_junction_0" departPos="4.10" departSpeed="0.00" departDelay="0.00" arrival="62.40" arrivalLane="junction_end4_0" arrivalPos="489.60" arrivalSpeed="32.94" duration="50.40" routeLength="984.13" waitingTime="0.00" waitingCount="0" stopTime="0.00" timeLoss="19.14" rerouteNo="0" devices="tripinfo_flow0.2" vType="vtypeauto" speedFactor="0.83" vaporized=""/>
    <tripinfo id="flow7.1" depart="8.80" departLane="end3_junction_0" departPos="4.10" departSpeed="0.00" departDelay="2.80" arrival="63.20" arrivalLane="junction_end1_0" arrivalPos="489.60" arrivalSpeed="35.98" duration="54.40" routeLength="995.90" waitingTime="4.90" waitingCount="1" stopTime="0.00" timeLoss="26.68" rerouteNo="0" devices="tripinfo_flow7.1" vType="vtypeauto" speedFactor="1.16" vaporized=""/>
    <tripinfo id="flow7.2" depart="14.70" departLane="end3_junction_0" departPos="4.10" departSpeed="0.00" departDelay="2.70" arrival="63.90" arrivalLane="junction_end1_1" arrivalPos="489.60" arrivalSpeed="35.95" duration="49.20" routeLength="995.90" waitingTime="0.00" waitingCount="0" stopTime="0.00" timeLoss="21.45" rerouteNo="0" devices="tripinfo_flow7.2" vType="vtypeauto" speedFactor="1.15" vaporized=""/>
    <tripinfo id="flow0.3" depart="18.00" departLane="end1_junction_0" departPos="4.10" departSpeed="0.00" departDelay="0.00" arrival="66.70" arrivalLane="junction_end4_0" arrivalPos="489.60" arrivalSpeed="35.91" duration="48.70" routeLength="984.13" waitingTime="0.00" waitingCount="0" stopTime="0.00" timeLoss="20.13" rerouteNo="0" devices="tripinfo_flow0.3" vType="vtypeauto" speedFactor="0.97" vaporized=""/>
    <tripinfo id="flow6.3" depart="18.00" departLane="end3_junction_0" departPos="4.10" departSpeed="0.00" departDelay="0.00" arrival="67.20" arrivalLane="junction_end2_0" arrivalPos="489.60" arrivalSpeed="35.88" duration="49.20" routeLength="984.13" waitingTime="0.00" waitingCount="0" stopTime="0.00" timeLoss="20.82" rerouteNo="0" devices="tripinfo_flow6.3" vType="vtypeauto" speedFactor="1.09" vaporized=""/>
    <tripinfo id="flow1.2" depart="14.70" departLane="end1_junction_0" departPos="4.10" departSpeed="0.00" departDelay="2.70" arrival="68.40" arrivalLane="junction_end3_0" arrivalPos="489.60" arrivalSpeed="34.80" duration="53.70" routeLength="995.90" waitingTime="0.00" waitingCount="0" stopTime="0.00" timeLoss="25.11" rerouteNo="0" devices="tripinfo_flow1.2" vType="vtypeauto" speedFactor="0.87" vaporized=""/>
    <tripinfo id="flow2.0" depart="5.50" departLane="end1_junction_0" departPos="4.10" departSpeed="0.00" departDelay="5.50" arrival="73.50" arrivalLane="junction_end2_1" arrivalPos="489.60" arrivalSpeed="35.92" duration="68.00" routeLength="994.45" waitingTime="19.10" waitingCount="1" stopTime="0.00" timeLoss="38.78" rerouteNo="0" devices="tripinfo_flow2.0" vType="vtypeauto" speedFactor="1.01" vaporized=""/>
    <tripinfo id="flow8.0" depart="5.60" departLane="end3_junction_0" departPos="4.10" departSpeed="0.00" departDelay="5.60" arrival="73.50" arrivalLane="junction_end4_1" arrivalPos="489.60" arrivalSpeed="35.98" duration="67.90" routeLength="994.45" waitingTime="19.30" waitingCount="1" stopTime="0.00" timeLoss="38.50" rerouteNo="0" devices="tripinfo_flow8.0" vType="vtypeauto" speedFactor="0.94" vaporized=""/>
    <tripinfo id="flow3.0" depart="0.00" departLane="end2_junction_0" departPos="4.10" departSpeed="0.00" departDelay="0.00" arrival="81.00" arrivalLane="junction_end1_0" arrivalPos="489.60" arrivalSpeed="35.95" duration="81.00" routeLength="984.13" waitingTime="33.10" waitingCount="1" stopTime="0.00" timeLoss="52.64" rerouteNo="0" devices="tripinfo_flow3.0" vType="vtypeauto" speedFactor="1.08" vaporized=""/>
    <tripinfo id="flow4.0" depart="2.70" departLane="end2_junction_0" departPos="4.10" departSpeed="0.00" departDelay="2.70" arrival="81.60" arrivalLane="junction_end4_0" arrivalPos="489.60" arrivalSpeed="35.94" duration="78.90" routeLength="995.90" waitingTime="29.80" waitingCount="1" stopTime="0.00" timeLoss="51.14" rerouteNo="0" devices="tripinfo_flow4.0" vType="vtypeauto" speedFactor="1.03" vaporized=""/>
    <tripinfo id="flow9.0" depart="0.00" departLane="end4_junction_0" departPos="4.10" departSpeed="0.00" departDelay="0.00" arrival="81.70" arrivalLane="junction_end3_0" arrivalPos="489.60" arrivalSpeed="34.25" duration="81.70" routeLength="984.13" waitingTime="32.80" waitingCount="1" stopTime="0.00" timeLoss="51.65" rerouteNo="0" devices="tripinfo_flow9.0" vType="vtypeauto" speedFactor="0.86" vaporized=""/>
    <tripinfo id="flow10.0" depart="2.80" departLane="end4_junction_0" departPos="4.10" departSpeed="0.00" departDelay="2.80" arrival="81.70" arrivalLane="junction_end2_0" arrivalPos="489.60" arrivalSpeed="36.00" duration="78.90" routeLength="995.90" waitingTime="29.90" waitingCount="1" stopTime="0.00" timeLoss="51.17" rerouteNo="0" devices="tripinfo_flow10.0" vType="vtypeauto" speedFactor="1.09" vaporized=""/>
    <tripinfo id="flow9.1" depart="6.00" departLane="end4_junction_0" departPos="4.10" departSpeed="0.00" departDelay="0.00" arrival="83.30" arrivalLane="junction_end3_0" arrivalPos="489.60" arrivalSpeed="35.97" duration="77.30" routeLength="984.13" waitingTime="22.50" waitingCount="1" stopTime="0.00" timeLoss="48.76" rerouteNo="0" devices="tripinfo_flow9.1" vType="vtypeauto" speedFactor="1.01" vaporized=""/>
    <tripinfo id="flow3.1" depart="6.00" departLane="end2_junction_0" departPos="4.10" departSpeed="0.00" departDelay="0.00" arrival="83.50" arrivalLane="junction_end1_0" arrivalPos="489.60" arrivalSpeed="35.98" duration="77.50" routeLength="984.13" waitingTime="21.60" waitingCount="1" stopTime="0.00" timeLoss="48.86" rerouteNo="0" devices="tripinfo_flow3.1" vType="vtypeauto" speedFactor="0.93" vaporized=""/>
    <tripinfo id="flow9.2" depart="12.00" departLane="end4_junction_0" departPos="4.10" departSpeed="0.00" departDelay="0.00" arrival="84.50" arrivalLane="junction_end3_1" arrivalPos="489.60" arrivalSpeed="35.96" duration="72.50" routeLength="984.13" waitingTime="16.50" waitingCount="1" stopTime="0.00" timeLoss="44.21" rerouteNo="0" devices="tripinfo_flow9.2" vType="vtypeauto" speedFactor="1.17" vaporized=""/>
    <tripinfo id="flow3.2" depart="12.00" departLane="end2_junction_0" departPos="4.10" departSpeed="0.00" departDelay="0.00" arrival="85.50" arrivalLane="junction_end1_0" arrivalPos="489.60" arrivalSpeed="35.92" duration="73.50" routeLength="984.13" waitingTime="16.60" waitingCount="1" stopTime="0.00" timeLoss="44.84" rerouteNo="0" devices="tripinfo_flow3.2" vType="vtypeauto" speedFactor="0.95" vaporized=""/>
    <tripinfo id="flow9.3" depart="18.00" departLane="end4_junction_0" departPos="4.10" departSpeed="0.00" departDelay="0.00" arrival="86.90" arrivalLane="junction_end3_0" arrivalPos="489.60" arrivalSpeed="35.88" duration="68.90" routeLength="984.13" waitingTime="11.10" waitingCount="1" stopTime="0.00" timeLoss="40.55" rerouteNo="0" devices="tripinfo_flow9.3" vType="vtypeauto" speedFactor="1.09" vaporized=""/>
    <tripinfo id="flow10.3" depart="20.70" departLane="end4_junction_0" departPos="4.10" departSpeed="0.00" departDelay="2.70" arrival="87.20" arrivalLane="junction_end2_0" arrivalPos="489.60" arrivalSpeed="35.97" duration="66.50" routeLength="995.90" waitingTime="6.30" waitingCount="1" stopTime="0.00" timeLoss="38.79" rerouteNo="0" devices="tripinfo_flow10.3" vType="vtypeauto" speedFactor="1.00" vaporized=""/>
    <tripinfo id="flow3.3" depart="18.00" departLane="end2_junction_0" departPos="4.10" departSpeed="0.00" departDelay="0.00" arrival="87.90" arrivalLane="junction_end1_0" arrivalPos="489.60" arrivalSpeed="35.91" duration="69.90" routeLength="984.13" waitingTime="10.20" waitingCount="1" stopTime="0.00" timeLoss="41.30" rerouteNo="0" devices="tripinfo_flow3.3" vType="vtypeauto" speedFactor="0.90" vaporized=""/>
    <tripinfo id="flow4.3" depart="20.80" departLane="end2_junction_0" departPos="4.10" departSpeed="0.00" departDelay="2.80" arrival="88.70" arrivalLane="junction_end4_0" arrivalPos="489.60" arrivalSpeed="35.93" duration="67.90" routeLength="995.90" waitingTime="5.80" waitingCount="1" stopTime="0.00" timeLoss="40.23" rerouteNo="0" devices="tripinfo_flow4.3" vType="vtypeauto" speedFactor="1.03" vaporized=""/>
    <tripinfo id="flow9.4" depart="24.00" departLane="end4_junction_0" departPos="4.10" departSpeed="0.00" departDelay="0.00" arrival="90.10" arrivalLane="junction_end3_0" arrivalPos="489.60" arrivalSpeed="35.95" duration="66.10" routeLength="984.13" waitingTime="4.70" waitingCount="1" stopTime="0.00" timeLoss="37.73" rerouteNo="0" devices="tripinfo_flow9.4" vType="vtypeauto" speedFactor="1.14" vaporized=""/>
    <tripinfo id="flow3.4" depart="24.00" departLane="end2_junction_0" departPos="4.10" departSpeed="0.00" departDelay="0.00" arrival="90.90" arrivalLane="junction_end1_0" arrivalPos="489.60" arrivalSpeed="35.94" duration="66.90" routeLength="984.13" waitingTime="4.10" waitingCount="1" stopTime="0.00" timeLoss="38.55" rerouteNo="0" devices="tripinfo_flow3.4" vType="vtypeauto" speedFactor="1.17" vaporized=""/>
    <tripinfo id="flow9.5" depart="30.00" departLane="end4_junction_0" departPos="4.10" departSpeed="0.00" departDelay="0.00" arrival="92.90" arrivalLane="junction_end3_0" arrivalPos="489.60" arrivalSpeed="35.95" duration="62.90" routeLength="984.13" waitingTime="1.20" waitingCount="1" stopTime="0.00" timeLoss="34.50" rerouteNo="0" devices="tripinfo_flow9.5" vType="vtypeauto" speedFactor="1.02" vaporized=""/>
    <tripinfo id="flow10.5" depart="32.70" departLane="end4_junction_0" departPos="4.10" departSpeed="0.00" departDelay="2.70" arrival="93.10" arrivalLane="junction_end2_0" arrivalPos="489.60" arrivalSpeed="35.89" duration="60.40" routeLength="995.90" waitingTime="0.00" waitingCount="0" stopTime="0.00" timeLoss="32.73" rerouteNo="0" devices="tripinfo_flow10.5" vType="vtypeauto" speedFactor="1.02" vaporized=""/>
    <tripinfo id="flow3.5" depart="30.00" departLane="end2_junction_0" departPos="4.10" departSpeed="0.00" departDelay="0.00" arrival="93.50" arrivalLane="junction_end1_0" arrivalPos="489.60" arrivalSpeed="35.94" duration="63.50" routeLength="984.13" waitingTime="0.00" waitingCount="0" stopTime="0.00" timeLoss="35.01" rerouteNo="0" devices="tripinfo_flow3.5" vType="vtypeauto" speedFactor="0.99" vaporized=""/>
    <tripinfo id="flow11.0" depart="5.60" departLane="end4_junction_0" departPos="4.10" departSpeed="0.00" departDelay="5.60" arrival="93.60" arrivalLane="junction_end1_1" arrivalPos="489.60" arrivalSpeed="35.97" duration="88.00" routeLength="994.45" waitingTime="30.20" waitingCount="2" stopTime="0.00" timeLoss="58.86" rerouteNo="0" devices="tripinfo_flow11.0" vType="vtypeauto" speedFactor="1.03" vaporized=""/>
    <tripinfo id="flow10.1" depart="8.90" departLane="end4_junction_0" departPos="4.10" departSpeed="0.00" departDelay="2.90" arrival="95.30" arrivalLane="junction_end2_1" arrivalPos="489.60" arrivalSpeed="35.88" duration="86.40" routeLength="995.90" waitingTime="27.20" waitingCount="2" stopTime="0.00" timeLoss="58.65" rerouteNo="0" devices="tripinfo_flow10.1" vType="vtypeauto" speedFactor="0.97" vaporized=""/>
    <tripinfo id="flow3.6" depart="36.00" departLane="end2_junction_0" departPos="4.10" departSpeed="0.00" departDelay="0.00" arrival="95.80" arrivalLane="junction_end1_0" arrivalPos="489.60" arrivalSpeed="36.00" duration="59.80" routeLength="984.13" waitingTime="0.00" waitingCount="0" stopTime="0.00" timeLoss="31.22" rerouteNo="0" devices="tripinfo_flow3.6" vType="vtypeauto" speedFactor="0.98" vaporized=""/>
    <tripinfo id="flow4.5" depart="32.90" departLane="end2_junction_0" departPos="4.10" departSpeed="0.00" departDelay="2.90" arrival="96.60" arrivalLane="junction_end4_0" arrivalPos="489.60" arrivalSpeed="35.97" duration="63.70" routeLength="995.90" waitingTime="0.00" waitingCount="0" stopTime="0.00" timeLoss="35.99" rerouteNo="0" devices="tripinfo_flow4.5" vType="vtypeauto" speedFactor="0.94" vaporized=""/>
    <tripinfo id="flow9.6" depart="36.00" departLane="end4_junction_0" departPos="4.10" departSpeed="0.00" departDelay="0.00" arrival="96.70" arrivalLane="junction_end3_0" arrivalPos="489.60" arrivalSpeed="35.99" duration="60.70" routeLength="984.13" waitingTime="0.00" waitingCount="0" stopTime="0.00" timeLoss="32.23" rerouteNo="0" devices="tripinfo_flow9.6" vType="vtypeauto" speedFactor="1.00" vaporized=""/>
    <tripinfo id="flow9.7" depart="42.00" departLane="end4_junction_0" departPos="4.10" departSpeed="0.00" departDelay="0.00" arrival="99.50" arrivalLane="junction_end3_0" arrivalPos="489.60" arrivalSpeed="35.94" duration="57.50" routeLength="984.13" waitingTime="0.00" waitingCount="0" stopTime="0.00" timeLoss="28.88" rerouteNo="0" devices="tripinfo_flow9.7" vType="vtypeauto" speedFactor="0.92" vaporized=""/>
    <tripinfo id="flow3.7" depart="42.00" departLane="end2_junction_0" departPos="4.10" departSpeed="0.00" departDelay="0.00" arrival="99.60" arrivalLane="junction_end1_0" arrivalPos="489.60" arrivalSpeed="35.92" duration="57.60" routeLength="984.13" waitingTime="0.00" waitingCount="0" stopTime="0.00" timeLoss="29.14" rerouteNo="0" devices="tripinfo_flow3.7" vType="vtypeauto" speedFactor="1.04" vaporized=""/>
    <tripinfo id="flow4.7" depart="44.70" departLane="end2_junction_0" departPos="4.10" departSpeed="0.00" departDelay="2.70" arrival="99.80" arrivalLane="junction_end4_0" arrivalPos="489.60" arrivalSpeed="35.95" duration="55.10" routeLength="995.90" waitingTime="0.00" waitingCount="0" stopTime="0.00" timeLoss="27.40" rerouteNo="0" devices="tripinfo_flow4.7" vType="vtypeauto" speedFactor="1.01" vaporized=""/>
    <tripinfo id="flow10.6" depart="38.80" departLane="end4_junction_0" departPos="4.10" departSpeed="0.00" departDelay="2.80" arrival="100.80" arrivalLane="junction_end2_0" arrivalPos="489.60" arrivalSpeed="35.96" duration="62.00" routeLength="995.90" waitingTime="0.00" waitingCount="0" stopTime="0.00" timeLoss="34.30" rerouteNo="0" devices="tripinfo_flow10.6" vType="vtypeauto" speedFactor="1.02" vaporized=""/>
    <tripinfo id="flow9.8" depart="48.00" departLane="end4_junction_0" departPos="4.10" departSpeed="0.00" departDelay="0.00" arrival="101.10" arrivalLane="junction_end3_0" arrivalPos="489.60" arrivalSpeed="35.94" duration="53.10" routeLength="984.13" waitingTime="0.00" waitingCount="0" stopTime="0.00" timeLoss="24.66" rerouteNo="0" devices="tripinfo_flow9.8" vType="vtypeauto" speedFactor="1.07" vaporized=""/>
    <tripinfo id="flow10.7" depart="44.80" departLane="end4_junction_0" departPos="4.10" departSpeed="0.00" departDelay="2.80" arrival="101.70" arrivalLane="junction_end2_1" arrivalPos="489.60" arrivalSpeed="35.97" duration="56.90" routeLength="995.90" waitingTime="0.00" waitingCount="0" stopTime="0.00" timeLoss="29.23" rerouteNo="0" devices="tripinfo_flow10.7" vType="vtypeauto" speedFactor="1.09" vaporized=""/>
    <tripinfo id="flow4.6" depart="38.80" departLane="end2_junction_0" departPos="4.10" departSpeed="0.00" departDelay="2.80" arrival="102.50" arrivalLane="junction_end4_0" arrivalPos="489.60" arrivalSpeed="35.96" duration="63.70" routeLength="995.90" waitingTime="0.00" waitingCount="0" stopTime="0.00" timeLoss="35.96" rerouteNo="0" devices="tripinfo_flow4.6" vType="vtypeauto" speedFactor="1.03" vaporized=""/>
    <tripinfo id="flow3.8" depart="48.00" departLane="end2_junction_0" departPos="4.10" departSpeed="0.00" departDelay="0.00" arrival="103.00" arrivalLane="junction_end1_0" arrivalPos="489.60" arrivalSpeed="35.88" duration="55.00" routeLength="984.13" waitingTime="0.00" waitingCount="0" stopTime="0.00" timeLoss="26.69" rerouteNo="0" devices="tripinfo_flow3.8" vType="vtypeauto" speedFactor="1.10" vaporized=""/>
    <tripinfo id="flow10.8" depart="50.80" departLane="end4_junction_0" departPos="4.10" departSpeed="0.00" departDelay="2.80" arrival="106.00" arrivalLane="junction_end2_0" arrivalPos="489.60" arrivalSpeed="35.89" duration="55.20" routeLength="995.90" waitingTime="0.00" waitingCount="0" stopTime="0.00" timeLoss="27.47" rerouteNo="0" devices="tripinfo_flow10.8" vType="vtypeauto" speedFactor="1.01" vaporized=""/>
    <tripinfo id="flow9.9" depart="54.00" departLane="end4_junction_0" departPos="4.10" departSpeed="0.00" departDelay="0.00" arrival="106.90" arrivalLane="junction_end3_0" arrivalPos="489.60" arrivalSpeed="35.98" duration="52.90" routeLength="984.13" waitingTime="0.00" waitingCount="0" stopTime="0.00" timeLoss="24.44" rerouteNo="0" devices="tripinfo_flow9.9" vType="vtypeauto" speedFactor="1.00" vaporized=""/>
    <tripinfo id="flow4.8" depart="50.80" departLane="end2_junction_0" departPos="4.10" departSpeed="0.00" departDelay="2.80" arrival="107.20" arrivalLane="junction_end4_0" arrivalPos="489.60" arrivalSpeed="35.94" duration="56.40" routeLength="995.90" waitingTime="0.00" waitingCount="0" stopTime="0.00" timeLoss="28.72" rerouteNo="0" devices="tripinfo_flow4.8" vType="vtypeauto" speedFactor="1.06" vaporized=""/>
    <tripinfo id="flow3.9" depart="54.00" departLane="end2_junction_0" departPos="4.10" departSpeed="0.00" departDelay="0.00" arrival="108.40" arrivalLane="junction_end1_0" arrivalPos="489.60" arrivalSpeed="34.60" duration="54.40" routeLength="984.13" waitingTime="0.00" waitingCount="0" stopTime="0.00" timeLoss="24.60" rerouteNo="0" devices="tripinfo_flow3.9" vType="vtypeauto" speedFactor="0.87" vaporized=""/>
    <tripinfo id="flow9.10" depart="60.00" departLane="end4_junction_0" departPos="4.10" departSpeed="0.00" departDelay="0.00" arrival="111.30" arrivalLane="junction_end3_0" arrivalPos="489.60" arrivalSpeed="35.93" duration="51.30" routeLength="984.13" waitingTime="0.00" waitingCount="0" stopTime="0.00" timeLoss="22.74" rerouteNo="0" devices="tripinfo_flow9.10" vType="vtypeauto" speedFactor="1.01" vaporized=""/>
    <tripinfo id="flow3.10" depart="60.00" departLane="end2_junction_0" departPos="4.10" departSpeed="0.00" departDelay="0.00" arrival="111.70" arrivalLane="junction_end1_0" arrivalPos="489.60" arrivalSpeed="35.93" duration="51.70" routeLength="984.13" waitingTime="0.00" waitingCount="0" stopTime="0.00" timeLoss="23.25" rerouteNo="0" devices="tripinfo_flow3.10" vType="vtypeauto" speedFactor="1.02" vaporized=""/>
    <tripinfo id="flow11.1" depart="11.80" departLane="end4_junction_0" departPos="4.10" departSpeed="0.00" departDelay="5.80" arrival="113.10" arrivalLane="junction_end1_1" arrivalPos="489.60" arrivalSpeed="35.57" duration="101.30" routeLength="994.45" waitingTime="35.10" waitingCount="3" stopTime="0.00" timeLoss="71.54" rerouteNo="0" devices="tripinfo_flow11.1" vType="vtypeauto" speedFactor="0.89" vaporized=""/>
    <tripinfo id="flow4.2" depart="14.80" departLane="end2_junction_0" departPos="4.10" departSpeed="0.00" departDelay="2.80" arrival="114.30" arrivalLane="junction_end4_0" arrivalPos="489.60" arrivalSpeed="35.97" duration="99.50" routeLength="995.90" waitingTime="35.10" waitingCount="2" stopTime="0.00" timeLoss="71.80" rerouteNo="0" devices="tripinfo_flow4.2" vType="vtypeauto" speedFactor="1.13" vaporized=""/>
    <tripinfo id="flow10.2" depart="14.80" departLane="end4_junction_0" departPos="4.10" departSpeed="0.00" departDelay="2.80" arrival="114.70" arrivalLane="junction_end2_0" arrivalPos="489.60" arrivalSpeed="35.99" duration="99.90" routeLength="995.90" waitingTime="31.00" waitingCount="3" stopTime="0.00" timeLoss="72.14" rerouteNo="0" devices="tripinfo_flow10.2" vType="vtypeauto" speedFactor="0.99" vaporized=""/>
    <tripinfo id="flow4.4" depart="26.80" departLane="end2_junction_0" departPos="4.10" departSpeed="0.00" departDelay="2.80" arrival="115.30" arrivalLane="junction_end4_1" arrivalPos="489.60" arrivalSpeed="35.92" duration="88.50" routeLength="995.90" waitingTime="18.80" waitingCount="2" stopTime="0.00" timeLoss="60.80" rerouteNo="0" devices="tripinfo_flow4.4" vType="vtypeauto" speedFactor="1.02" vaporized=""/>
    <tripinfo id="flow10.4" depart="26.80" departLane="end4_junction_0" departPos="4.10" departSpeed="0.00" departDelay="2.80" arrival="115.60" arrivalLane="junction_end2_1" arrivalPos="489.60" arrivalSpeed="35.97" duration="88.80" routeLength="995.90" waitingTime="9.00" waitingCount="2" stopTime="0.00" timeLoss="61.07" rerouteNo="0" devices="tripinfo_flow10.4" vType="vtypeauto" speedFactor="1.02" vaporized=""/>
    <tripinfo id="flow4.9" depart="56.90" departLane="end2_junction_0" departPos="4.10" departSpeed="0.00" departDelay="2.90" arrival="116.20" arrivalLane="junction_end4_0" arrivalPos="489.60" arrivalSpeed="35.91" duration="59.30" routeLength="995.90" waitingTime="0.00" waitingCount="0" stopTime="0.00" timeLoss="31.61" rerouteNo="0" devices="tripinfo_flow4.9" vType="vtypeauto" speedFactor="1.10" vaporized=""/>
    <tripinfo id="flow10.9" depart="56.90" departLane="end4_junction_0" departPos="4.10" departSpeed="0.00" departDelay="2.90" arrival="116.50" arrivalLane="junction_end2_0" arrivalPos="489.60" arrivalSpeed="35.88" duration="59.60" routeLength="995.90" waitingTime="0.00" waitingCount="0" stopTime="0.00" timeLoss="31.93" rerouteNo="0" devices="tripinfo_flow10.9" vType="vtypeauto" speedFactor="0.99" vaporized=""/>
    <tripinfo id="flow9.11" depart="66.00" departLane="end4_junction_0" departPos="4.10" departSpeed="0.00" departDelay="0.00" arrival="119.20" arrivalLane="junction_end3_0" arrivalPos="489.60" arrivalSpeed="35.98" duration="53.20" routeLength="984.13" waitingTime="0.00" waitingCount="0" stopTime="0.00" timeLoss="24.92" rerouteNo="0" devices="tripinfo_flow9.11" vType="vtypeauto" speedFactor="1.16" vaporized=""/>
    <tripinfo id="flow10.10" depart="62.80" departLane="end4_junction_0" departPos="4.10" departSpeed="0.00" departDelay="2.80" arrival="119.40" arrivalLane="junction_end2_0" arrivalPos="489.60" arrivalSpeed="35.89" duration="56.60" routeLength="995.90" waitingTime="0.00" waitingCount="0" stopTime="0.00" timeLoss="28.86" rerouteNo="0" devices="tripinfo_flow10.10" vType="vtypeauto" speedFactor="1.03" vaporized=""/>
    <tripinfo id="flow3.11" depart="66.00" departLane="end2_junction_0" departPos="4.10" departSpeed="0.00" departDelay="0.00" arrival="120.20" arrivalLane="junction_end1_0" arrivalPos="489.60" arrivalSpeed="35.88" duration="54.20" routeLength="984.13" waitingTime="0.00" waitingCount="0" stopTime="0.00" timeLoss="25.77" rerouteNo="0" devices="tripinfo_flow3.11" vType="vtypeauto" speedFactor="1.01" vaporized=""/>
    <tripinfo id="flow4.10" depart="62.80" departLane="end2_junction_0" departPos="4.10" departSpeed="0.00" departDelay="2.80" arrival="120.40" arrivalLane="junction_end4_0" arrivalPos="489.60" arrivalSpeed="35.92" duration="57.60" routeLength="995.90" waitingTime="0.00" waitingCount="0" stopTime="0.00" timeLoss="29.89" rerouteNo="0" devices="tripinfo_flow4.10" vType="vtypeauto" speedFactor="1.06" vaporized=""/>
    <tripinfo id="flow10.11" depart="68.70" departLane="end4_junction_0" departPos="4.10" departSpeed="0.00" departDelay="2.70" arrival="122.30" arrivalLane="junction_end2_0" arrivalPos="489.60" arrivalSpeed="35.99" duration="53.60" routeLength="995.90" waitingTime="0.00" waitingCount="0" stopTime="0.00" timeLoss="25.87" rerouteNo="0" devices="tripinfo_flow10.11" vType="vtypeauto" speedFactor="0.94" vaporized=""/>
    <tripinfo id="flow4.11" depart="68.70" departLane="end2_junction_0" departPos="4.10" departSpeed="0.00" departDelay="2.70" arrival="122.60" arrivalLane="junction_end4_0" arrivalPos="489.60" arrivalSpeed="35.91" duration="53.90" routeLength="995.90" waitingTime="0.00" waitingCount="0" stopTime="0.00" timeLoss="26.24" rerouteNo="0" devices="tripinfo_flow4.11" vType="vtypeauto" speedFactor="1.12" vaporized=""/>
    <tripinfo id="flow9.12" depart="72.00" departLane="end4_junction_0" departPos="4.10" departSpeed="0.00" departDelay="0.00" arrival="124.30" arrivalLane="junction_end3_0" arrivalPos="489.60" arrivalSpeed="35.93" duration="52.30" routeLength="984.13" waitingTime="0.00" waitingCount="0" stopTime="0.00" timeLoss="23.65" rerouteNo="0" devices="tripinfo_flow9.12" vType="vtypeauto" speedFactor="0.93" vaporized=""/>
    <tripinfo id="flow3.12" depart="72.00" departLane="end2_junction_0" departPos="4.10" departSpeed="0.00" departDelay="0.00" arrival="124.60" arrivalLane="junction_end1_0" arrivalPos="489.60" arrivalSpeed="35.89" duration="52.60" routeLength="984.13" waitingTime="0.00" waitingCount="0" stopTime="0.00" timeLoss="24.08" rerouteNo="0" devices="tripinfo_flow3.12" vType="vtypeauto" speedFactor="1.00" vaporized=""/>
    <tripinfo id="flow3.13" depart="78.00" departLane="end2_junction_0" departPos="4.10" departSpeed="0.00" departDelay="0.00" arrival="128.80" arrivalLane="junction_end1_0" arrivalPos="489.60" arrivalSpeed="35.96" duration="50.80" routeLength="984.13" waitingTime="0.00" waitingCount="0" stopTime="0.00" timeLoss="22.47" rerouteNo="0" devices="tripinfo_flow3.13" vType="vtypeauto" speedFactor="1.14" vaporized=""/>
    <tripinfo id="flow9.13" depart="78.00" departLane="end4_junction_0" departPos="4.10" departSpeed="0.00" departDelay="0.00" arrival="129.20" arrivalLane="junction_end3_0" arrivalPos="489.60" arrivalSpeed="35.95" duration="51.20" routeLength="984.13" waitingTime="0.00" waitingCount="0" stopTime="0.00" timeLoss="22.56" rerouteNo="0" devices="tripinfo_flow9.13" vType="vtypeauto" speedFactor="0.91" vaporized=""/>
    <tripinfo id="flow5.0" depart="5.50" departLane="end2_junction_0" departPos="4.10" departSpeed="0.00" departDelay="5.50" arrival="129.90" arrivalLane="junction_end3_1" arrivalPos="489.60" arrivalSpeed="33.24" duration="124.40" routeLength="994.45" waitingTime="66.80" waitingCount="3" stopTime="0.00" timeLoss="92.51" rerouteNo="0" devices="tripinfo_flow5.0" vType="vtypeauto" speedFactor="0.83" vaporized=""/>