<?xml version="1.0" encoding="UTF-8"?>

<!-- generated on 2024-04-04 12:29:10 by Eclipse SUMO sumo Version 1.19.0
<configuration xmlns:xsi="http://www.w3.org/2001/XMLSchema-instance" xsi:noNamespaceSchemaLocation="http://sumo.dlr.de/xsd/sumoConfiguration.xsd">

    <input>
        <net-file value="maps/city1.net.xml"/>
        <route-files value="maps/city1.rou.xml"/>
    </input>

    <output>
        <tripinfo-output value="maps/tripinfo.xml"/>
    </output>

    <time>
        <begin value="0"/>
        <end value="200"/>
    </time>

    <report>
        <verbose value="true"/>
        <no-step-log value="true"/>
    </report>

    <traci_server>
        <remote-port value="49790"/>
    </traci_server>

    <gui_only>
        <gui-settings-file value="maps/gui_settings.xml"/>
    </gui_only>

</configuration>
-->

<tripinfos xmlns:xsi="http://www.w3.org/2001/XMLSchema-instance" xsi:noNamespaceSchemaLocation="http://sumo.dlr.de/xsd/tripinfo_file.xsd">
    <tripinfo id="13" depart="13.00" departLane="-gneE14_0" departPos="5.10" departSpeed="0.00" departDelay="0.00" arrival="23.00" arrivalLane="-gneE14_0" arrivalPos="89.60" arrivalSpeed="14.27" duration="10.00" routeLength="84.50" waitingTime="0.00" waitingCount="0" stopTime="0.00" timeLoss="3.61" rerouteNo="0" devices="tripinfo_13" vType="DEFAULT_VEHTYPE" speedFactor="1.09" vaporized=""/>
    <tripinfo id="4" depart="4.00" departLane="-gneE5_0" departPos="5.10" departSpeed="0.00" departDelay="0.00" arrival="44.00" arrivalLane="-gneE1_0" arrivalPos="85.60" arrivalSpeed="13.56" duration="40.00" routeLength="374.92" waitingTime="1.00" waitingCount="1" stopTime="0.00" timeLoss="11.48" rerouteNo="0" devices="tripinfo_4" vType="DEFAULT_VEHTYPE" speedFactor="1.01" vaporized=""/>
    <tripinfo id="8" depart="8.00" departLane="-gneE26_0" departPos="5.10" departSpeed="0.00" departDelay="0.00" arrival="48.00" arrivalLane="gneE14_0" arrivalPos="89.60" arrivalSpeed="14.14" duration="40.00" routeLength="391.59" waitingTime="0.00" waitingCount="0" stopTime="0.00" timeLoss="11.65" rerouteNo="0" devices="tripinfo_8" vType="DEFAULT_VEHTYPE" speedFactor="1.05" vaporized=""/>
    <tripinfo id="27" depart="27.00" departLane="gneE19_0" departPos="5.10" departSpeed="0.00" departDelay="0.00" arrival="80.00" arrivalLane="gneE17_0" arrivalPos="92.80" arrivalSpeed="14.84" duration="53.00" routeLength="585.39" waitingTime="0.00" waitingCount="0" stopTime="0.00" timeLoss="13.99" rerouteNo="0" devices="tripinfo_27" vType="DEFAULT_VEHTYPE" speedFactor="1.16" vaporized=""/>
    <tripinfo id="17" depart="17.00" departLane="-gneE36_0" departPos="5.10" departSpeed="0.00" departDelay="0.00" arrival="84.00" arrivalLane="gneE12_0" arrivalPos="85.60" arrivalSpeed="4.83" duration="67.00" routeLength="687.49" waitingTime="3.00" waitingCount="1" stopTime="0.00" timeLoss="22.40" rerouteNo="0" devices="tripinfo_17" vType="DEFAULT_VEHTYPE" speedFactor="1.12" vaporized=""/>
    <tripinfo id="33" depart="33.00" departLane="-gneE26_0" departPos="5.10" departSpeed="0.00" departDelay="0.00" arrival="89.00" arrivalLane="-gneE10_0" arrivalPos="96.80" arrivalSpeed="11.28" duration="56.00" routeLength="491.90" waitingTime="3.00" waitingCount="1" stopTime="0.00" timeLoss="12.91" rerouteNo="0" devices="tripinfo_33" vType="DEFAULT_VEHTYPE" speedFactor="0.83" vaporized=""/>
    <tripinfo id="19" depart="19.00" departLane="gneE35_0" departPos="5.10" departSpeed="0.00" departDelay="0.00" arrival="92.00" arrivalLane="gneE13_0" arrivalPos="92.80" arrivalSpeed="12.63" duration="73.00" routeLength="789.32" waitingTime="1.00" waitingCount="1" stopTime="0.00" timeLoss="14.05" rerouteNo="0" devices="tripinfo_19" vType="DEFAULT_VEHTYPE" speedFactor="0.99" vaporized=""/>
    <tripinfo id="25" depart="25.00" departLane="-gneE34_0" departPos="5.10" departSpeed="0.00" departDelay="0.00" arrival="98.00" arrivalLane="-gneE22_0" arrivalPos="85.60" arrivalSpeed="11.91" duration="73.00" routeLength="580.18" waitingTime="10.00" waitingCount="2" stopTime="0.00" timeLoss="26.89" rerouteNo="0" devices="tripinfo_25" vType="DEFAULT_VEHTYPE" speedFactor="0.94" vaporized=""/>
    <tripinfo id="47" depart="47.00" departLane="-gneE13_0" departPos="5.10" departSpeed="0.00" departDelay="0.00" arrival="99.00" arrivalLane="-gneE38_0" arrivalPos="296.80" arrivalSpeed="16.23" duration="52.00" routeLength="490.87" waitingTime="7.00" waitingCount="1" stopTime="0.00" timeLoss="21.19" rerouteNo="0" devices="tripinfo_47" vType="DEFAULT_VEHTYPE" speedFactor="1.17" vaporized=""/>
    <tripinfo id="90" depart="90.00" departLane="gneE23_0" departPos="5.10" departSpeed="0.00" departDelay="0.00" arrival="100.00" arrivalLane="gneE23_0" arrivalPos="89.60" arrivalSpeed="13.60" duration="10.00" routeLength="84.50" waitingTime="0.00" waitingCount="0" stopTime="0.00" timeLoss="3.22" rerouteNo="0" devices="tripinfo_90" vType="DEFAULT_VEHTYPE" speedFactor="1.02" vaporized=""/>
    <tripinfo id="52" depart="52.00" departLane="-gneE29_0" departPos="5.10" departSpeed="0.00" departDelay="0.00" arrival="103.00" arrivalLane="gneE21_0" arrivalPos="87.62" arrivalSpeed="7.35" duration="51.00" routeLength="413.15" waitingTime="8.00" waitingCount="1" stopTime="0.00" timeLoss="22.93" rerouteNo="0" devices="tripinfo_52" vType="DEFAULT_VEHTYPE" speedFactor="1.10" vaporized=""/>
    <tripinfo id="30" depart="30.00" departLane="gneE9_0" departPos="5.10" departSpeed="0.00" departDelay="0.00" arrival="105.00" arrivalLane="gneE2_0" arrivalPos="185.60" arrivalSpeed="9.09" duration="75.00" routeLength="379.13" waitingTime="32.00" waitingCount="1" stopTime="0.00" timeLoss="45.61" rerouteNo="0" devices="tripinfo_30" vType="DEFAULT_VEHTYPE" speedFactor="0.97" vaporized=""/>
    <tripinfo id="16" depart="16.00" departLane="gneE10_0" departPos="5.10" departSpeed="0.00" departDelay="0.00" arrival="111.00" arrivalLane="gneE8_0" arrivalPos="85.60" arrivalSpeed="13.58" duration="95.00" routeLength="683.97" waitingTime="22.00" waitingCount="2" stopTime="0.00" timeLoss="45.66" rerouteNo="0" devices="tripinfo_16" vType="DEFAULT_VEHTYPE" speedFactor="1.05" vaporized=""/>
    <tripinfo id="9" depart="9.00" departLane="gneE3_0" departPos="5.10" departSpeed="0.00" departDelay="0.00" arrival="119.00" arrivalLane="-gneE0_0" arrivalPos="92.80" arrivalSpeed="11.76" duration="110.00" routeLength="671.38" waitingTime="33.00" waitingCount="2" stopTime="0.00" timeLoss="51.90" rerouteNo="0" devices="tripinfo_9" vType="DEFAULT_VEHTYPE" speedFactor="0.89" vaporized=""/>
    <tripinfo id="38" depart="38.00" departLane="gneE4_0" departPos="5.10" departSpeed="0.00" departDelay="0.00" arrival="124.00" arrivalLane="-gneE7_0" arrivalPos="92.80" arrivalSpeed="12.51" duration="86.00" routeLength="587.17" waitingTime="14.00" waitingCount="3" stopTime="0.00" timeLoss="36.99" rerouteNo="0" devices="tripinfo_38" vType="DEFAULT_VEHTYPE" speedFactor="0.92" vaporized=""/>
    <tripinfo id="85" depart="85.00" departLane="gneE5_0" departPos="5.10" departSpeed="0.00" departDelay="0.00" arrival="124.00" arrivalLane="gneE13_0" arrivalPos="92.80" arrivalSpeed="12.63" duration="39.00" routeLength="287.49" waitingTime="8.00" waitingCount="1" stopTime="0.00" timeLoss="15.97" rerouteNo="0" devices="tripinfo_85" vType="DEFAULT_VEHTYPE" speedFactor="0.94" vaporized=""/>
    <tripinfo id="7" depart="7.00" departLane="gneE19_0" departPos="5.10" departSpeed="0.00" departDelay="0.00" arrival="133.00" arrivalLane="gneE11_0" arrivalPos="92.80" arrivalSpeed="10.43" duration="126.00" routeLength="678.58" waitingTime="44.00" waitingCount="1" stopTime="0.00" timeLoss="63.37" rerouteNo="0" devices="tripinfo_7" vType="DEFAULT_VEHTYPE" speedFactor="0.83" vaporized=""/>
    <tripinfo id="51" depart="51.00" departLane="gneE20_0" departPos="5.10" departSpeed="0.00" departDelay="0.00" arrival="134.00" arrivalLane="gneE11_0" arrivalPos="92.80" arrivalSpeed="14.27" duration="83.00" routeLength="584.16" waitingTime="22.00" waitingCount="1" stopTime="0.00" timeLoss="45.86" rerouteNo="0" devices="tripinfo_51" vType="DEFAULT_VEHTYPE" speedFactor="1.18" vaporized=""/>
    <tripinfo id="53" depart="53.00" departLane="-gneE18_0" departPos="5.10" departSpeed="0.00" departDelay="0.00" arrival="137.00" arrivalLane="-gneE5_0" arrivalPos="85.60" arrivalSpeed="6.65" duration="84.00" routeLength="275.23" waitingTime="42.00" waitingCount="2" stopTime="0.00" timeLoss="61.27" rerouteNo="0" devices="tripinfo_53" vType="DEFAULT_VEHTYPE" speedFactor="0.90" vaporized=""/>
    <tripinfo id="57" depart="58.00" departLane="gneE4_0" departPos="5.10" departSpeed="0.00" departDelay="1.00" arrival="139.00" arrivalLane="gneE34_0" arrivalPos="85.60" arrivalSpeed="14.25" duration="81.00" routeLength="664.18" waitingTime="11.00" waitingCount="1" stopTime="0.00" timeLoss="32.13" rerouteNo="0" devices="tripinfo_57" vType="DEFAULT_VEHTYPE" speedFactor="1.04" vaporized=""/>
    <tripinfo id="2" depart="2.00" departLane="gneE24_0" departPos="5.10" departSpeed="0.00" departDelay="0.00" arrival="140.00" arrivalLane="gneE23_0" arrivalPos="89.60" arrivalSpeed="12.08" duration="138.00" routeLength="768.59" waitingTime="52.00" waitingCount="3" stopTime="0.00" timeLoss="75.85" rerouteNo="0" devices="tripinfo_2" vType="DEFAULT_VEHTYPE" speedFactor="0.94" vaporized=""/>
    <tripinfo id="15" depart="15.00" departLane="gneE3_0" departPos="5.10" departSpeed="0.00" departDelay="0.00" arrival="141.00" arrivalLane="gneE26_0" arrivalPos="92.80" arrivalSpeed="13.83" duration="126.00" routeLength="782.22" waitingTime="39.00" waitingCount="3" stopTime="0.00" timeLoss="68.88" rerouteNo="0" devices="tripinfo_15" vType="DEFAULT_VEHTYPE" speedFactor="1.03" vaporized=""/>
    <tripinfo id="127" depart="130.00" departLane="gneE9_0" departPos="5.10" departSpeed="0.00" departDelay="3.00" arrival="141.00" arrivalLane="gneE9_0" arrivalPos="89.60" arrivalSpeed="12.40" duration="11.00" routeLength="84.50" waitingTime="0.00" waitingCount="0" stopTime="0.00" timeLoss="3.65" rerouteNo="0" devices="tripinfo_127" vType="DEFAULT_VEHTYPE" speedFactor="0.91" vaporized=""/>
    <tripinfo id="35" depart="35.00" departLane="-gneE25_0" departPos="5.10" departSpeed="0.00" departDelay="0.00" arrival="143.00" arrivalLane="gneE6_0" arrivalPos="92.80" arrivalSpeed="11.26" duration="108.00" routeLength="477.06" waitingTime="53.00" waitingCount="2" stopTime="0.00" timeLoss="66.70" rerouteNo="0" devices="tripinfo_35" vType="DEFAULT_VEHTYPE" speedFactor="0.87" vaporized=""/>
    <tripinfo id="50" depart="50.00" departLane="-gneE1_0" departPos="5.10" departSpeed="0.00" departDelay="0.00" arrival="144.00" arrivalLane="gneE26_0" arrivalPos="92.80" arrivalSpeed="12.72" duration="94.00" routeLength="876.85" waitingTime="7.00" waitingCount="1" stopTime="0.00" timeLoss="26.70" rerouteNo="0" devices="tripinfo_50" vType="DEFAULT_VEHTYPE" speedFactor="0.97" vaporized=""/>
    <tripinfo id="6" depart="6.00" departLane="-gneE10_0" departPos="5.10" departSpeed="0.00" departDelay="0.00" arrival="146.00" arrivalLane="-gneE21_0" arrivalPos="87.62" arrivalSpeed="13.99" duration="140.00" routeLength="780.42" waitingTime="57.00" waitingCount="2" stopTime="0.00" timeLoss="84.35" rerouteNo="0" devices="tripinfo_6" vType="DEFAULT_VEHTYPE" speedFactor="1.03" vaporized=""/>
    <tripinfo id="86" depart="86.00" departLane="-gneE8_0" departPos="5.10" departSpeed="0.00" departDelay="0.00" arrival="147.00" arrivalLane="gneE3_0" arrivalPos="185.60" arrivalSpeed="11.57" duration="61.00" routeLength="375.13" waitingTime="12.00" waitingCount="1" stopTime="0.00" timeLoss="29.46" rerouteNo="0" devices="tripinfo_86" vType="DEFAULT_VEHTYPE" speedFactor="0.88" vaporized=""/>
    <tripinfo id="5" depart="5.00" departLane="-gneE25_0" departPos="5.10" departSpeed="0.00" departDelay="0.00" arrival="148.00" arrivalLane="gneE1_0" arrivalPos="85.60" arrivalSpeed="5.78" duration="143.00" routeLength="774.81" waitingTime="66.00" waitingCount="3" stopTime="0.00" timeLoss="89.49" rerouteNo="0" devices="tripinfo_5" vType="DEFAULT_VEHTYPE" speedFactor="1.08" vaporized=""/>
    <tripinfo id="10" depart="12.00" departLane="gneE3_0" departPos="5.10" departSpeed="0.00" departDelay="2.00" arrival="151.00" arrivalLane="gneE24_0" arrivalPos="85.60" arrivalSpeed="8.59" duration="139.00" routeLength="669.65" waitingTime="61.00" waitingCount="3" stopTime="0.00" timeLoss="84.91" rerouteNo="0" devices="tripinfo_10" vType="DEFAULT_VEHTYPE" speedFactor="0.94" vaporized=""/>
    <tripinfo id="31" depart="31.00" departLane="gneE11_0" departPos="5.10" departSpeed="0.00" departDelay="0.00" arrival="151.00" arrivalLane="gneE23_0" arrivalPos="89.60" arrivalSpeed="11.46" duration="120.00" routeLength="875.51" waitingTime="21.00" waitingCount="2" stopTime="0.00" timeLoss="47.70" rerouteNo="0" devices="tripinfo_31" vType="DEFAULT_VEHTYPE" speedFactor="0.89" vaporized=""/>
    <tripinfo id="56" depart="56.00" departLane="gneE0_0" departPos="5.10" departSpeed="0.00" departDelay="0.00" arrival="155.00" arrivalLane="-gneE20_0" arrivalPos="92.80" arrivalSpeed="14.57" duration="99.00" routeLength="284.16" waitingTime="68.00" waitingCount="1" stopTime="0.00" timeLoss="78.75" rerouteNo="0" devices="tripinfo_56" vType="DEFAULT_VEHTYPE" speedFactor="1.09" vaporized=""/>
    <tripinfo id="55" depart="55.00" departLane="gneE38_0" departPos="5.10" departSpeed="0.00" departDelay="0.00" arrival="156.00" arrivalLane="-gneE25_0" arrivalPos="92.80" arrivalSpeed="12.86" duration="101.00" routeLength="880.23" waitingTime="8.00" waitingCount="2" stopTime="0.00" timeLoss="31.42" rerouteNo="0" devices="tripinfo_55" vType="DEFAULT_VEHTYPE" speedFactor="0.96" vaporized=""/>
    <tripinfo id="43" depart="43.00" departLane="gneE9_0" departPos="5.10" departSpeed="0.00" departDelay="0.00" arrival="157.00" arrivalLane="gneE1_0" arrivalPos="85.60" arrivalSpeed="10.57" duration="114.00" routeLength="778.50" waitingTime="26.00" waitingCount="2" stopTime="0.00" timeLoss="64.21" rerouteNo="0" devices="tripinfo_43" vType="DEFAULT_VEHTYPE" speedFactor="1.18" vaporized=""/>
    <tripinfo id="20" depart="20.00" departLane="gneE22_0" departPos="5.10" departSpeed="0.00" departDelay="0.00" arrival="167.00" arrivalLane="-gneE10_0" arrivalPos="96.80" arrivalSpeed="7.89" duration="147.00" routeLength="579.33" waitingTime="85.00" waitingCount="2" stopTime="0.00" timeLoss="101.33" rerouteNo="0" devices="tripinfo_20" vType="DEFAULT_VEHTYPE" speedFactor="0.93" vaporized=""/>
    <tripinfo id="45" depart="45.00" departLane="-gneE18_0" departPos="5.10" departSpeed="0.00" departDelay="0.00" arrival="169.00" arrivalLane="gneE2_0" arrivalPos="185.60" arrivalSpeed="8.87" duration="124.00" routeLength="865.93" waitingTime="31.00" waitingCount="2" stopTime="0.00" timeLoss="59.60" rerouteNo="0" devices="tripinfo_45" vType="DEFAULT_VEHTYPE" speedFactor="1.01" vaporized=""/>
    <tripinfo id="138" depart="138.00" departLane="-gneE17_0" departPos="5.10" departSpeed="0.00" departDelay="0.00" arrival="169.00" arrivalLane="gneE12_0" arrivalPos="85.60" arrivalSpeed="9.16" duration="31.00" routeLength="187.49" waitingTime="4.00" waitingCount="1" stopTime="0.00" timeLoss="16.36" rerouteNo="0" devices="tripinfo_138" vType="DEFAULT_VEHTYPE" speedFactor="1.01" vaporized=""/>
    <tripinfo id="60" depart="60.00" departLane="gneE25_0" departPos="5.10" departSpeed="0.00" departDelay="0.00" arrival="171.00" arrivalLane="gneE11_0" arrivalPos="92.80" arrivalSpeed="14.90" duration="111.00" routeLength="589.00" waitingTime="52.00" waitingCount="2" stopTime="0.00" timeLoss="68.56" rerouteNo="0" devices="tripinfo_60" vType="DEFAULT_VEHTYPE" speedFactor="1.09" vaporized=""/>
    <tripinfo id="73" depart="73.00" departLane="gneE10_0" departPos="5.10" departSpeed="0.00" departDelay="0.00" arrival="171.00" arrivalLane="gneE26_0" arrivalPos="92.80" arrivalSpeed="12.74" duration="98.00" routeLength="491.90" waitingTime="48.00" waitingCount="2" stopTime="0.00" timeLoss="62.22" rerouteNo="0" devices="tripinfo_73" vType="DEFAULT_VEHTYPE" speedFactor="1.00" vaporized=""/>
    <tripinfo id="24" depart="24.00" departLane="gneE18_0" departPos="5.10" departSpeed="0.00" departDelay="0.00" arrival="173.00" arrivalLane="-gneE35_0" arrivalPos="292.80" arrivalSpeed="12.09" duration="149.00" routeLength="889.00" waitingTime="50.00" waitingCount="2" stopTime="0.00" timeLoss="72.78" rerouteNo="0" devices="tripinfo_24" vType="DEFAULT_VEHTYPE" speedFactor="0.88" vaporized=""/>
    <tripinfo id="63" depart="63.00" departLane="-gneE10_0" departPos="5.10" departSpeed="0.00" departDelay="0.00" arrival="174.00" arrivalLane="gneE5_0" arrivalPos="85.60" arrivalSpeed="13.84" duration="111.00" routeLength="573.14" waitingTime="40.00" waitingCount="2" stopTime="0.00" timeLoss="67.00" rerouteNo="0" devices="tripinfo_63" vType="DEFAULT_VEHTYPE" speedFactor="1.00" vaporized=""/>
    <tripinfo id="0" depart="0.00" departLane="gneE18_0" departPos="5.10" departSpeed="0.00" departDelay="0.00" arrival="175.00" arrivalLane="-gneE1_0" arrivalPos="85.60" arrivalSpeed="13.59" duration="175.00" routeLength="682.01" waitingTime="101.00" waitingCount="3" stopTime="0.00" timeLoss="126.62" rerouteNo="0" devices="tripinfo_0" vType="DEFAULT_VEHTYPE" speedFactor="1.06" vaporized=""/>
    <tripinfo id="68" depart="68.00" departLane="-gneE13_0" departPos="5.10" departSpeed="0.00" departDelay="0.00" arrival="177.00" arrivalLane="gneE28_0" arrivalPos="216.45" arrivalSpeed="15.71" duration="109.00" routeLength="798.93" waitingTime="35.00" waitingCount="1" stopTime="0.00" timeLoss="57.99" rerouteNo="0" devices="tripinfo_68" vType="DEFAULT_VEHTYPE" speedFactor="1.17" vaporized=""/>
    <tripinfo id="70" depart="71.00" departLane="-gneE8_0" departPos="5.10" departSpeed="0.00" departDelay="1.00" arrival="178.00" arrivalLane="gneE12_0" arrivalPos="85.60" arrivalSpeed="13.54" duration="107.00" routeLength="469.76" waitingTime="51.00" waitingCount="3" stopTime="0.00" timeLoss="72.52" rerouteNo="0" devices="tripinfo_70" vType="DEFAULT_VEHTYPE" speedFactor="1.02" vaporized=""/>
    <tripinfo id="111" depart="120.00" departLane="gneE10_0" departPos="5.10" departSpeed="0.00" departDelay="9.00" arrival="179.00" arrivalLane="gneE27_0" arrivalPos="92.80" arrivalSpeed="12.54" duration="59.00" routeLength="486.53" waitingTime="7.00" waitingCount="1" stopTime="0.00" timeLoss="21.86" rerouteNo="0" devices="tripinfo_111" vType="DEFAULT_VEHTYPE" speedFactor="0.98" vaporized=""/>
    <tripinfo id="102" depart="102.00" departLane="-gneE9_0" departPos="5.10" departSpeed="0.00" departDelay="0.00" arrival="181.00" arrivalLane="-gneE22_0" arrivalPos="85.60" arrivalSpeed="12.49" duration="79.00" routeLength="681.83" waitingTime="9.00" waitingCount="1" stopTime="0.00" timeLoss="27.01" rerouteNo="0" devices="tripinfo_102" vType="DEFAULT_VEHTYPE" speedFactor="0.98" vaporized=""/>
    <tripinfo id="136" depart="136.00" departLane="gneE2_0" departPos="5.10" departSpeed="0.00" departDelay="0.00" arrival="182.00" arrivalLane="gneE6_0" arrivalPos="92.80" arrivalSpeed="11.57" duration="46.00" routeLength="287.70" waitingTime="10.00" waitingCount="1" stopTime="0.00" timeLoss="22.59" rerouteNo="0" devices="tripinfo_136" vType="DEFAULT_VEHTYPE" speedFactor="0.89" vaporized=""/>
    <tripinfo id="40" depart="40.00" departLane="gneE11_0" departPos="5.10" departSpeed="0.00" departDelay="0.00" arrival="186.00" arrivalLane="-gneE25_0" arrivalPos="92.80" arrivalSpeed="14.98" duration="146.00" routeLength="1067.97" waitingTime="33.00" waitingCount="3" stopTime="0.00" timeLoss="76.08" rerouteNo="0" devices="tripinfo_40" vType="DEFAULT_VEHTYPE" speedFactor="1.13" vaporized=""/>
    <tripinfo id="87" depart="87.00" departLane="gneE3_0" departPos="5.10" departSpeed="0.00" departDelay="0.00" arrival="188.00" arrivalLane="-gneE21_0" arrivalPos="87.62" arrivalSpeed="12.52" duration="101.00" routeLength="576.83" waitingTime="36.00" waitingCount="2" stopTime="0.00" timeLoss="52.59" rerouteNo="0" devices="tripinfo_87" vType="DEFAULT_VEHTYPE" speedFactor="0.91" vaporized=""/>
    <tripinfo id="76" depart="76.00" departLane="-gneE6_0" departPos="5.10" departSpeed="0.00" departDelay="0.00" arrival="189.00" arrivalLane="gneE10_0" arrivalPos="96.80" arrivalSpeed="15.02" duration="113.00" routeLength="596.03" waitingTime="52.00" waitingCount="2" stopTime="0.00" timeLoss="73.71" rerouteNo="0" devices="tripinfo_76" vType="DEFAULT_VEHTYPE" speedFactor="1.14" vaporized=""/>
    <tripinfo id="94" depart="94.00" departLane="-gneE24_0" departPos="5.10" departSpeed="0.00" departDelay="0.00" arrival="189.00" arrivalLane="-gneE6_0" arrivalPos="92.80" arrivalSpeed="10.07" duration="95.00" routeLength="380.39" waitingTime="41.00" waitingCount="1" stopTime="0.00" timeLoss="66.14" rerouteNo="0" devices="tripinfo_94" vType="DEFAULT_VEHTYPE" speedFactor="0.97" vaporized=""/>
    <tripinfo id="26" depart="26.00" departLane="-gneE29_0" departPos="5.10" departSpeed="0.00" departDelay="0.00" arrival="190.00" arrivalLane="gneE5_0" arrivalPos="85.60" arrivalSpeed="12.61" duration="164.00" routeLength="707.67" waitingTime="76.00" waitingCount="3" stopTime="0.00" timeLoss="106.17" rerouteNo="0" devices="tripinfo_26" vType="DEFAULT_VEHTYPE" speedFactor="0.94" vaporized=""/>
    <tripinfo id="124" depart="127.00" departLane="gneE2_0" departPos="5.10" departSpeed="0.00" departDelay="3.00" arrival="195.00" arrivalLane="-gneE3_0" arrivalPos="185.60" arrivalSpeed="13.86" duration="68.00" routeLength="480.08" waitingTime="20.00" waitingCount="1" stopTime="0.00" timeLoss="34.64" rerouteNo="0" devices="tripinfo_124" vType="DEFAULT_VEHTYPE" speedFactor="1.09" vaporized=""/>
    <tripinfo id="103" depart="103.00" departLane="-gneE4_0" departPos="5.10" departSpeed="0.00" departDelay="0.00" arrival="196.00" arrivalLane="-gneE11_0" arrivalPos="92.80" arrivalSpeed="5.72" duration="93.00" routeLength="781.52" waitingTime="9.00" waitingCount="2" stopTime="0.00" timeLoss="34.23" rerouteNo="0" devices="tripinfo_103" vType="DEFAULT_VEHTYPE" speedFactor="1.01" vaporized=""/>
    <tripinfo id="112" depart="112.00" departLane="-gneE12_0" departPos="5.10" departSpeed="0.00" departDelay="0.00" arrival="197.00" arrivalLane="gneE14_0" arrivalPos="89.60" arrivalSpeed="13.26" duration="85.00" routeLength="668.38" waitingTime="15.00" waitingCount="1" stopTime="0.00" timeLoss="33.65" rerouteNo="0" devices="tripinfo_112" vType="DEFAULT_VEHTYPE" speedFactor="1.00" vaporized=""/>
    <tripinfo id="88" depart="89.00" departLane="-gneE17_0" departPos="5.10" departSpeed="0.00" departDelay="1.00" arrival="199.00" arrivalLane="-gneE5_0" arrivalPos="85.60" arrivalSpeed="8.00" duration="110.00" routeLength="182.33" waitingTime="72.00" waitingCount="3" stopTime="0.00" timeLoss="94.22" rerouteNo="0" devices="tripinfo_88" vType="DEFAULT_VEHTYPE" speedFactor="0.91" vaporized=""/>
    <tripinfo id="104" depart="104.00" departLane="-gneE36_0" departPos="5.10" departSpeed="0.00" departDelay="0.00" arrival="199.00" arrivalLane="gneE9_0" arrivalPos="89.60" arrivalSpeed="14.73" duration="95.00" routeLength="978.40" waitingTime="3.00" waitingCount="1" stopTime="0.00" timeLoss="28.26" rerouteNo="0" devices="tripinfo_104" vType="DEFAULT_VEHTYPE" speedFactor="1.09" vaporized=""/>
    <tripinfo id="29" depart="31.00" departLane="-gneE22_0" departPos="5.10" departSpeed="0.00" departDelay="2.00" arrival="200.00" arrivalLane="-gneE38_0" arrivalPos="296.80" arrivalSpeed="12.80" duration="169.00" routeLength="883.56" waitingTime="73.00" waitingCount="3" stopTime="0.00" timeLoss="104.05" rerouteNo="0" devices="tripinfo_29" vType="DEFAULT_VEHTYPE" speedFactor="1.01" vaporized=""/>
    <tripinfo id="67" depart="67.00" departLane="-gneE14_0" departPos="5.10" departSpeed="0.00" departDelay="0.00" arrival="200.00" arrivalLane="-gneE9_0" arrivalPos="89.60" arrivalSpeed="5.94" duration="133.00" routeLength="688.08" waitingTime="40.00" waitingCount="3" stopTime="0.00" timeLoss="73.01" rerouteNo="0" devices="tripinfo_67" vType="DEFAULT_VEHTYPE" speedFactor="0.85" vaporized=""/>
    <tripinfo id="141" depart="144.00" departLane="gneE18_0" departPos="5.10" departSpeed="0.00" departDelay="3.00" arrival="200.00" arrivalLane="-gneE25_0" arrivalPos="92.80" arrivalSpeed="12.14" duration="56.00" routeLength="284.16" waitingTime="13.00" waitingCount="2" stopTime="0.00" timeLoss="32.98" rerouteNo="0" devices="tripinfo_141" vType="DEFAULT_VEHTYPE" speedFactor="0.96" vaporized=""/>
    <tripinfo id="71" depart="71.00" departLane="-gneE28_0" departPos="5.10" departSpeed="0.00" departDelay="0.00" arrival="201.00" arrivalLane="gneE34_0" arrivalPos="85.60" arrivalSpeed="15.11" duration="130.00" routeLength="699.16" waitingTime="43.00" waitingCount="2" stopTime="0.00" timeLoss="81.31" rerouteNo="0" devices="tripinfo_71" vType="DEFAULT_VEHTYPE" speedFactor="1.10" vaporized=""/>
    <tripinfo id="110" depart="113.00" departLane="gneE7_0" departPos="5.10" departSpeed="0.00" departDelay="3.00" arrival="201.00" arrivalLane="gneE14_0" arrivalPos="89.60" arrivalSpeed="15.10" duration="88.00" routeLength="580.85" waitingTime="20.00" waitingCount="2" stopTime="0.00" timeLoss="48.49" rerouteNo="0" devices="tripinfo_110" vType="DEFAULT_VEHTYPE" speedFactor="1.15" vaporized=""/>
    <tripinfo id="146" depart="147.00" departLane="gneE18_0" departPos="5.10" departSpeed="0.00" departDelay="1.00" arrival="202.00" arrivalLane="-gneE25_0" arrivalPos="92.80" arrivalSpeed="15.20" duration="55.00" routeLength="284.16" waitingTime="9.00" waitingCount="1" stopTime="0.00" timeLoss="34.64" rerouteNo="0" devices="tripinfo_146" vType="DEFAULT_VEHTYPE" speedFactor="1.10" vaporized=""/>
    <tripinfo id="44" depart="44.00" departLane="-gneE14_0" departPos="5.10" departSpeed="0.00" departDelay="0.00" arrival="205.00" arrivalLane="-gneE11_0" arrivalPos="92.80" arrivalSpeed="15.99" duration="161.00" routeLength="885.52" waitingTime="70.00" waitingCount="3" stopTime="0.00" timeLoss="102.83" rerouteNo="0" devices="tripinfo_44" vType="DEFAULT_VEHTYPE" speedFactor="1.15" vaporized=""/>
    <tripinfo id="74" depart="76.00" departLane="-gneE24_0" departPos="5.10" departSpeed="0.00" departDelay="2.00" arrival="206.00" arrivalLane="-gneE3_0" arrivalPos="185.60" arrivalSpeed="12.07" duration="130.00" routeLength="674.81" waitingTime="53.00" waitingCount="2" stopTime="0.00" timeLoss="73.66" rerouteNo="0" devices="tripinfo_74" vType="DEFAULT_VEHTYPE" speedFactor="0.90" vaporized=""/>
    <tripinfo id="66" depart="67.00" departLane="gneE38_0" departPos="5.10" departSpeed="0.00" departDelay="1.00" arrival="207.00" arrivalLane="gneE6_0" arrivalPos="92.80" arrivalSpeed="10.90" duration="140.00" routeLength="690.87" waitingTime="56.00" waitingCount="2" stopTime="0.00" timeLoss="80.10" rerouteNo="0" devices="tripinfo_66" vType="DEFAULT_VEHTYPE" speedFactor="0.85" vaporized=""/>
    <tripinfo id="97" depart="130.00" departLane="-gneE6_0" departPos="5.10" departSpeed="0.00" departDelay="33.00" arrival="208.00" arrivalLane="gneE34_0" arrivalPos="85.60" arrivalSpeed="14.59" duration="78.00" routeLength="282.33" waitingTime="41.00" waitingCount="1" stopTime="0.00" timeLoss="57.26" rerouteNo="0" devices="tripinfo_97" vType="DEFAULT_VEHTYPE" speedFactor="1.06" vaporized=""/>
    <tripinfo id="179" depart="179.00" departLane="-gneE17_0" departPos="5.10" departSpeed="0.00" departDelay="0.00" arrival="210.00" arrivalLane="-gneE5_0" arrivalPos="85.60" arrivalSpeed="7.47" duration="31.00" routeLength="182.33" waitingTime="2.00" waitingCount="1" stopTime="0.00" timeLoss="18.23" rerouteNo="0" devices="tripinfo_179" vType="DEFAULT_VEHTYPE" speedFactor="1.07" vaporized=""/>
    <tripinfo id="131" depart="132.00" departLane="-gneE34_0" departPos="5.10" departSpeed="0.00" departDelay="1.00" arrival="213.00" arrivalLane="-gneE2_0" arrivalPos="185.60" arrivalSpeed="4.98" duration="81.00" routeLength="375.13" waitingTime="28.00" waitingCount="2" stopTime="0.00" timeLoss="51.62" rerouteNo="0" devices="tripinfo_131" vType="DEFAULT_VEHTYPE" speedFactor="0.96" vaporized=""/>
    <tripinfo id="178" depart="178.00" departLane="gneE7_0" departPos="5.10" departSpeed="0.00" departDelay="0.00" arrival="215.00" arrivalLane="-gneE25_0" arrivalPos="92.80" arrivalSpeed="14.18" duration="37.00" routeLength="384.16" waitingTime="0.00" waitingCount="0" stopTime="0.00" timeLoss="8.67" rerouteNo="0" devices="tripinfo_178" vType="DEFAULT_VEHTYPE" speedFactor="1.03" vaporized=""/>
    <tripinfo id="49" depart="49.00" departLane="gneE8_0" departPos="5.10" departSpeed="0.00" departDelay="0.00" arrival="216.00" arrivalLane="gneE34_0" arrivalPos="85.60" arrivalSpeed="14.05" duration="167.00" routeLength="781.73" waitingTime="85.00" waitingCount="2" stopTime="0.00" timeLoss="110.53" rerouteNo="0" devices="tripinfo_49" vType="DEFAULT_VEHTYPE" speedFactor="1.02" vaporized=""/>
    <tripinfo id="107" depart="107.00" departLane="gneE7_0" departPos="5.10" departSpeed="0.00" departDelay="0.00" arrival="216.00" arrivalLane="gneE9_0" arrivalPos="89.60" arrivalSpeed="13.15" duration="109.00" routeLength="773.34" waitingTime="25.00" waitingCount="2" stopTime="0.00" timeLoss="52.65" rerouteNo="0" devices="tripinfo_107" vType="DEFAULT_VEHTYPE" speedFactor="1.02" vaporized=""/>
    <tripinfo id="176" depart="177.00" departLane="gneE6_0" departPos="5.10" departSpeed="0.00" departDelay="1.00" arrival="217.00" arrivalLane="-gneE17_0" arrivalPos="92.80" arrivalSpeed="15.27" duration="40.00" routeLength="469.96" waitingTime="0.00" waitingCount="0" stopTime="0.00" timeLoss="8.76" rerouteNo="0" devices="tripinfo_176" vType="DEFAULT_VEHTYPE" speedFactor="1.12" vaporized=""/>
    <tripinfo id="134" depart="134.00" departLane="gneE19_0" departPos="5.10" departSpeed="0.00" departDelay="0.00" arrival="219.00" arrivalLane="-gneE0_0" arrivalPos="92.80" arrivalSpeed="12.10" duration="85.00" routeLength="394.48" waitingTime="39.00" waitingCount="1" stopTime="0.00" timeLoss="53.21" rerouteNo="0" devices="tripinfo_134" vType="DEFAULT_VEHTYPE" speedFactor="0.95" vaporized=""/>