<?xml version="1.0" encoding="UTF-8"?>

<!-- generated on 2024-04-03 23:07:08 by Eclipse SUMO GUI Version 1.19.0
<configuration xmlns:xsi="http://www.w3.org/2001/XMLSchema-instance" xsi:noNamespaceSchemaLocation="http://sumo.dlr.de/xsd/sumoConfiguration.xsd">

    <input>
        <net-file value="maps/city1.net.xml"/>
        <route-files value="maps/city1.rou.xml"/>
    </input>

    <output>
        <tripinfo-output value="maps/tripinfo.xml"/>
    </output>

    <time>
        <begin value="0"/>
        <end value="200"/>
    </time>

    <report>
        <verbose value="true"/>
        <no-step-log value="true"/>
    </report>

    <traci_server>
        <remote-port value="51235"/>
    </traci_server>

    <gui_only>
        <gui-settings-file value="maps/gui_settings.xml"/>
    </gui_only>

</configuration>
-->

<tripinfos xmlns:xsi="http://www.w3.org/2001/XMLSchema-instance" xsi:noNamespaceSchemaLocation="http://sumo.dlr.de/xsd/tripinfo_file.xsd">
    <tripinfo id="13" depart="13.00" departLane="-gneE14_0" departPos="5.10" departSpeed="0.00" departDelay="0.00" arrival="23.00" arrivalLane="-gneE14_0" arrivalPos="89.60" arrivalSpeed="14.27" duration="10.00" routeLength="84.50" waitingTime="0.00" waitingCount="0" stopTime="0.00" timeLoss="3.61" rerouteNo="0" devices="tripinfo_13" vType="DEFAULT_VEHTYPE" speedFactor="1.09" vaporized=""/>
    <tripinfo id="4" depart="4.00" departLane="-gneE5_0" departPos="5.10" departSpeed="0.00" departDelay="0.00" arrival="44.00" arrivalLane="-gneE1_0" arrivalPos="85.60" arrivalSpeed="13.56" duration="40.00" routeLength="374.92" waitingTime="1.00" waitingCount="1" stopTime="0.00" timeLoss="11.48" rerouteNo="0" devices="tripinfo_4" vType="DEFAULT_VEHTYPE" speedFactor="1.01" vaporized=""/>
    <tripinfo id="9" depart="9.00" departLane="gneE3_0" departPos="5.10" departSpeed="0.00" departDelay="0.00" arrival="79.00" arrivalLane="-gneE0_0" arrivalPos="92.80" arrivalSpeed="11.76" duration="70.00" routeLength="671.38" waitingTime="0.00" waitingCount="0" stopTime="0.00" timeLoss="12.21" rerouteNo="0" devices="tripinfo_9" vType="DEFAULT_VEHTYPE" speedFactor="0.89" vaporized=""/>
    <tripinfo id="25" depart="25.00" departLane="-gneE34_0" departPos="5.10" departSpeed="0.00" departDelay="0.00" arrival="80.00" arrivalLane="-gneE22_0" arrivalPos="85.60" arrivalSpeed="12.03" duration="55.00" routeLength="580.18" waitingTime="0.00" waitingCount="0" stopTime="0.00" timeLoss="7.90" rerouteNo="0" devices="tripinfo_25" vType="DEFAULT_VEHTYPE" speedFactor="0.94" vaporized=""/>
    <tripinfo id="27" depart="27.00" departLane="gneE19_0" departPos="5.10" departSpeed="0.00" departDelay="0.00" arrival="85.00" arrivalLane="gneE17_0" arrivalPos="92.80" arrivalSpeed="14.84" duration="58.00" routeLength="585.39" waitingTime="1.00" waitingCount="1" stopTime="0.00" timeLoss="19.48" rerouteNo="0" devices="tripinfo_27" vType="DEFAULT_VEHTYPE" speedFactor="1.16" vaporized=""/>
    <tripinfo id="8" depart="8.00" departLane="-gneE26_0" departPos="5.10" departSpeed="0.00" departDelay="0.00" arrival="99.00" arrivalLane="gneE14_0" arrivalPos="89.60" arrivalSpeed="13.36" duration="91.00" routeLength="391.59" waitingTime="45.00" waitingCount="2" stopTime="0.00" timeLoss="62.46" rerouteNo="0" devices="tripinfo_8" vType="DEFAULT_VEHTYPE" speedFactor="1.05" vaporized=""/>
    <tripinfo id="90" depart="90.00" departLane="gneE23_0" departPos="5.10" departSpeed="0.00" departDelay="0.00" arrival="100.00" arrivalLane="gneE23_0" arrivalPos="89.60" arrivalSpeed="13.60" duration="10.00" routeLength="84.50" waitingTime="0.00" waitingCount="0" stopTime="0.00" timeLoss="3.47" rerouteNo="0" devices="tripinfo_90" vType="DEFAULT_VEHTYPE" speedFactor="1.02" vaporized=""/>
    <tripinfo id="20" depart="20.00" departLane="gneE22_0" departPos="5.10" departSpeed="0.00" departDelay="0.00" arrival="102.00" arrivalLane="-gneE10_0" arrivalPos="96.80" arrivalSpeed="12.43" duration="82.00" routeLength="579.33" waitingTime="24.00" waitingCount="1" stopTime="0.00" timeLoss="35.38" rerouteNo="0" devices="tripinfo_20" vType="DEFAULT_VEHTYPE" speedFactor="0.93" vaporized=""/>
    <tripinfo id="17" depart="17.00" departLane="-gneE36_0" departPos="5.10" departSpeed="0.00" departDelay="0.00" arrival="104.00" arrivalLane="gneE12_0" arrivalPos="85.60" arrivalSpeed="7.99" duration="87.00" routeLength="687.49" waitingTime="21.00" waitingCount="2" stopTime="0.00" timeLoss="42.06" rerouteNo="0" devices="tripinfo_17" vType="DEFAULT_VEHTYPE" speedFactor="1.12" vaporized=""/>
    <tripinfo id="30" depart="30.00" departLane="gneE9_0" departPos="5.10" departSpeed="0.00" departDelay="0.00" arrival="107.00" arrivalLane="gneE2_0" arrivalPos="185.60" arrivalSpeed="8.07" duration="77.00" routeLength="379.13" waitingTime="34.00" waitingCount="1" stopTime="0.00" timeLoss="48.03" rerouteNo="0" devices="tripinfo_30" vType="DEFAULT_VEHTYPE" speedFactor="0.97" vaporized=""/>
    <tripinfo id="33" depart="33.00" departLane="-gneE26_0" departPos="5.10" departSpeed="0.00" departDelay="0.00" arrival="110.00" arrivalLane="-gneE10_0" arrivalPos="96.80" arrivalSpeed="11.11" duration="77.00" routeLength="491.90" waitingTime="17.00" waitingCount="2" stopTime="0.00" timeLoss="33.38" rerouteNo="0" devices="tripinfo_33" vType="DEFAULT_VEHTYPE" speedFactor="0.83" vaporized=""/>
    <tripinfo id="19" depart="19.00" departLane="gneE35_0" departPos="5.10" departSpeed="0.00" departDelay="0.00" arrival="112.00" arrivalLane="gneE13_0" arrivalPos="92.80" arrivalSpeed="13.10" duration="93.00" routeLength="789.32" waitingTime="19.00" waitingCount="1" stopTime="0.00" timeLoss="33.68" rerouteNo="0" devices="tripinfo_19" vType="DEFAULT_VEHTYPE" speedFactor="0.99" vaporized=""/>
    <tripinfo id="47" depart="50.00" departLane="-gneE13_0" departPos="5.10" departSpeed="0.00" departDelay="3.00" arrival="117.00" arrivalLane="-gneE38_0" arrivalPos="296.80" arrivalSpeed="15.54" duration="67.00" routeLength="490.87" waitingTime="21.00" waitingCount="1" stopTime="0.00" timeLoss="36.33" rerouteNo="0" devices="tripinfo_47" vType="DEFAULT_VEHTYPE" speedFactor="1.17" vaporized=""/>
    <tripinfo id="85" depart="90.00" departLane="gneE5_0" departPos="5.10" departSpeed="0.00" departDelay="5.00" arrival="121.00" arrivalLane="gneE13_0" arrivalPos="92.80" arrivalSpeed="11.78" duration="31.00" routeLength="287.49" waitingTime="0.00" waitingCount="0" stopTime="0.00" timeLoss="7.24" rerouteNo="0" devices="tripinfo_85" vType="DEFAULT_VEHTYPE" speedFactor="0.94" vaporized=""/>
    <tripinfo id="53" depart="53.00" departLane="-gneE18_0" departPos="5.10" departSpeed="0.00" departDelay="0.00" arrival="124.00" arrivalLane="-gneE5_0" arrivalPos="85.60" arrivalSpeed="7.64" duration="71.00" routeLength="275.23" waitingTime="33.00" waitingCount="2" stopTime="0.00" timeLoss="48.05" rerouteNo="0" devices="tripinfo_53" vType="DEFAULT_VEHTYPE" speedFactor="0.90" vaporized=""/>
    <tripinfo id="6" depart="6.00" departLane="-gneE10_0" departPos="5.10" departSpeed="0.00" departDelay="0.00" arrival="132.00" arrivalLane="-gneE21_0" arrivalPos="87.62" arrivalSpeed="13.82" duration="126.00" routeLength="780.42" waitingTime="46.00" waitingCount="1" stopTime="0.00" timeLoss="69.87" rerouteNo="0" devices="tripinfo_6" vType="DEFAULT_VEHTYPE" speedFactor="1.03" vaporized=""/>
    <tripinfo id="24" depart="24.00" departLane="gneE18_0" departPos="5.10" departSpeed="0.00" departDelay="0.00" arrival="137.00" arrivalLane="-gneE35_0" arrivalPos="292.80" arrivalSpeed="12.11" duration="113.00" routeLength="889.00" waitingTime="20.00" waitingCount="1" stopTime="0.00" timeLoss="36.89" rerouteNo="0" devices="tripinfo_24" vType="DEFAULT_VEHTYPE" speedFactor="0.88" vaporized=""/>
    <tripinfo id="31" depart="31.00" departLane="gneE11_0" departPos="5.10" departSpeed="0.00" departDelay="0.00" arrival="138.00" arrivalLane="gneE23_0" arrivalPos="89.60" arrivalSpeed="11.41" duration="107.00" routeLength="875.51" waitingTime="16.00" waitingCount="1" stopTime="0.00" timeLoss="34.39" rerouteNo="0" devices="tripinfo_31" vType="DEFAULT_VEHTYPE" speedFactor="0.89" vaporized=""/>
    <tripinfo id="28" depart="28.00" departLane="-gneE22_0" departPos="5.10" departSpeed="0.00" departDelay="0.00" arrival="139.00" arrivalLane="gneE26_0" arrivalPos="92.80" arrivalSpeed="13.71" duration="111.00" routeLength="787.27" waitingTime="29.00" waitingCount="2" stopTime="0.00" timeLoss="52.91" rerouteNo="0" devices="tripinfo_28" vType="DEFAULT_VEHTYPE" speedFactor="1.02" vaporized=""/>
    <tripinfo id="73" depart="73.00" departLane="gneE10_0" departPos="5.10" departSpeed="0.00" departDelay="0.00" arrival="141.00" arrivalLane="gneE26_0" arrivalPos="92.80" arrivalSpeed="13.01" duration="68.00" routeLength="491.90" waitingTime="22.00" waitingCount="1" stopTime="0.00" timeLoss="32.41" rerouteNo="0" devices="tripinfo_73" vType="DEFAULT_VEHTYPE" speedFactor="1.00" vaporized=""/>
    <tripinfo id="127" depart="130.00" departLane="gneE9_0" departPos="5.10" departSpeed="0.00" departDelay="3.00" arrival="141.00" arrivalLane="gneE9_0" arrivalPos="89.60" arrivalSpeed="12.11" duration="11.00" routeLength="84.50" waitingTime="0.00" waitingCount="0" stopTime="0.00" timeLoss="3.41" rerouteNo="0" devices="tripinfo_127" vType="DEFAULT_VEHTYPE" speedFactor="0.91" vaporized=""/>
    <tripinfo id="2" depart="2.00" departLane="gneE24_0" departPos="5.10" departSpeed="0.00" departDelay="0.00" arrival="142.00" arrivalLane="gneE23_0" arrivalPos="89.60" arrivalSpeed="11.92" duration="140.00" routeLength="768.59" waitingTime="60.00" waitingCount="2" stopTime="0.00" timeLoss="78.40" rerouteNo="0" devices="tripinfo_2" vType="DEFAULT_VEHTYPE" speedFactor="0.94" vaporized=""/>
    <tripinfo id="29" depart="31.00" departLane="-gneE22_0" departPos="5.10" departSpeed="0.00" departDelay="2.00" arrival="143.00" arrivalLane="-gneE38_0" arrivalPos="296.80" arrivalSpeed="13.14" duration="112.00" routeLength="883.56" waitingTime="24.00" waitingCount="1" stopTime="0.00" timeLoss="46.24" rerouteNo="0" devices="tripinfo_29" vType="DEFAULT_VEHTYPE" speedFactor="1.01" vaporized=""/>
    <tripinfo id="52" depart="52.00" departLane="-gneE29_0" departPos="5.10" departSpeed="0.00" departDelay="0.00" arrival="151.00" arrivalLane="gneE21_0" arrivalPos="87.62" arrivalSpeed="6.05" duration="99.00" routeLength="413.15" waitingTime="56.00" waitingCount="1" stopTime="0.00" timeLoss="70.86" rerouteNo="0" devices="tripinfo_52" vType="DEFAULT_VEHTYPE" speedFactor="1.10" vaporized=""/>
    <tripinfo id="86" depart="86.00" departLane="-gneE8_0" departPos="5.10" departSpeed="0.00" departDelay="0.00" arrival="151.00" arrivalLane="gneE3_0" arrivalPos="185.60" arrivalSpeed="11.77" duration="65.00" routeLength="375.13" waitingTime="10.00" waitingCount="1" stopTime="0.00" timeLoss="33.12" rerouteNo="0" devices="tripinfo_86" vType="DEFAULT_VEHTYPE" speedFactor="0.88" vaporized=""/>
    <tripinfo id="43" depart="43.00" departLane="gneE9_0" departPos="5.10" departSpeed="0.00" departDelay="0.00" arrival="155.00" arrivalLane="gneE1_0" arrivalPos="85.60" arrivalSpeed="9.97" duration="112.00" routeLength="778.50" waitingTime="24.00" waitingCount="2" stopTime="0.00" timeLoss="61.48" rerouteNo="0" devices="tripinfo_43" vType="DEFAULT_VEHTYPE" speedFactor="1.18" vaporized=""/>
    <tripinfo id="56" depart="56.00" departLane="gneE0_0" departPos="5.10" departSpeed="0.00" departDelay="0.00" arrival="155.00" arrivalLane="-gneE20_0" arrivalPos="92.80" arrivalSpeed="14.87" duration="99.00" routeLength="284.16" waitingTime="68.00" waitingCount="1" stopTime="0.00" timeLoss="78.73" rerouteNo="0" devices="tripinfo_56" vType="DEFAULT_VEHTYPE" speedFactor="1.09" vaporized=""/>
    <tripinfo id="5" depart="5.00" departLane="-gneE25_0" departPos="5.10" departSpeed="0.00" departDelay="0.00" arrival="157.00" arrivalLane="gneE1_0" arrivalPos="85.60" arrivalSpeed="12.96" duration="152.00" routeLength="774.81" waitingTime="70.00" waitingCount="2" stopTime="0.00" timeLoss="98.15" rerouteNo="0" devices="tripinfo_5" vType="DEFAULT_VEHTYPE" speedFactor="1.08" vaporized=""/>
    <tripinfo id="63" depart="63.00" departLane="-gneE10_0" departPos="5.10" departSpeed="0.00" departDelay="0.00" arrival="161.00" arrivalLane="gneE5_0" arrivalPos="85.60" arrivalSpeed="12.77" duration="98.00" routeLength="573.14" waitingTime="21.00" waitingCount="2" stopTime="0.00" timeLoss="55.11" rerouteNo="0" devices="tripinfo_63" vType="DEFAULT_VEHTYPE" speedFactor="1.00" vaporized=""/>
    <tripinfo id="88" depart="89.00" departLane="-gneE17_0" departPos="5.10" departSpeed="0.00" departDelay="1.00" arrival="167.00" arrivalLane="-gneE5_0" arrivalPos="85.60" arrivalSpeed="8.14" duration="78.00" routeLength="182.33" waitingTime="45.00" waitingCount="2" stopTime="0.00" timeLoss="62.20" rerouteNo="0" devices="tripinfo_88" vType="DEFAULT_VEHTYPE" speedFactor="0.91" vaporized=""/>
    <tripinfo id="136" depart="136.00" departLane="gneE2_0" departPos="5.10" departSpeed="0.00" departDelay="0.00" arrival="168.00" arrivalLane="gneE6_0" arrivalPos="92.80" arrivalSpeed="11.57" duration="32.00" routeLength="287.70" waitingTime="0.00" waitingCount="0" stopTime="0.00" timeLoss="8.54" rerouteNo="0" devices="tripinfo_136" vType="DEFAULT_VEHTYPE" speedFactor="0.89" vaporized=""/>
    <tripinfo id="51" depart="51.00" departLane="gneE20_0" departPos="5.10" departSpeed="0.00" departDelay="0.00" arrival="170.00" arrivalLane="gneE11_0" arrivalPos="92.80" arrivalSpeed="15.43" duration="119.00" routeLength="584.16" waitingTime="61.00" waitingCount="3" stopTime="0.00" timeLoss="82.05" rerouteNo="0" devices="tripinfo_51" vType="DEFAULT_VEHTYPE" speedFactor="1.18" vaporized=""/>
    <tripinfo id="35" depart="35.00" departLane="-gneE25_0" departPos="5.10" departSpeed="0.00" departDelay="0.00" arrival="172.00" arrivalLane="gneE6_0" arrivalPos="92.80" arrivalSpeed="11.32" duration="137.00" routeLength="477.06" waitingTime="74.00" waitingCount="3" stopTime="0.00" timeLoss="96.08" rerouteNo="0" devices="tripinfo_35" vType="DEFAULT_VEHTYPE" speedFactor="0.87" vaporized=""/>
    <tripinfo id="87" depart="87.00" departLane="gneE3_0" departPos="5.10" departSpeed="0.00" departDelay="0.00" arrival="174.00" arrivalLane="-gneE21_0" arrivalPos="87.62" arrivalSpeed="12.57" duration="87.00" routeLength="576.83" waitingTime="19.00" waitingCount="2" stopTime="0.00" timeLoss="38.11" rerouteNo="0" devices="tripinfo_87" vType="DEFAULT_VEHTYPE" speedFactor="0.91" vaporized=""/>
    <tripinfo id="7" depart="7.00" departLane="gneE19_0" departPos="5.10" departSpeed="0.00" departDelay="0.00" arrival="176.00" arrivalLane="gneE11_0" arrivalPos="92.80" arrivalSpeed="10.56" duration="169.00" routeLength="678.58" waitingTime="86.00" waitingCount="2" stopTime="0.00" timeLoss="106.43" rerouteNo="0" devices="tripinfo_7" vType="DEFAULT_VEHTYPE" speedFactor="0.83" vaporized=""/>
    <tripinfo id="70" depart="70.00" departLane="-gneE8_0" departPos="5.10" departSpeed="0.00" departDelay="0.00" arrival="176.00" arrivalLane="gneE12_0" arrivalPos="85.60" arrivalSpeed="8.51" duration="106.00" routeLength="469.76" waitingTime="35.00" waitingCount="4" stopTime="0.00" timeLoss="71.63" rerouteNo="0" devices="tripinfo_70" vType="DEFAULT_VEHTYPE" speedFactor="1.02" vaporized=""/>
    <tripinfo id="60" depart="60.00" departLane="gneE25_0" departPos="5.10" departSpeed="0.00" departDelay="0.00" arrival="177.00" arrivalLane="gneE11_0" arrivalPos="92.80" arrivalSpeed="13.18" duration="117.00" routeLength="589.00" waitingTime="53.00" waitingCount="2" stopTime="0.00" timeLoss="75.43" rerouteNo="0" devices="tripinfo_60" vType="DEFAULT_VEHTYPE" speedFactor="1.09" vaporized=""/>
    <tripinfo id="138" depart="138.00" departLane="-gneE17_0" departPos="5.10" departSpeed="0.00" departDelay="0.00" arrival="178.00" arrivalLane="gneE12_0" arrivalPos="85.60" arrivalSpeed="10.34" duration="40.00" routeLength="187.49" waitingTime="9.00" waitingCount="1" stopTime="0.00" timeLoss="25.85" rerouteNo="0" devices="tripinfo_138" vType="DEFAULT_VEHTYPE" speedFactor="1.01" vaporized=""/>
    <tripinfo id="141" depart="144.00" departLane="gneE18_0" departPos="5.10" departSpeed="0.00" departDelay="3.00" arrival="178.00" arrivalLane="-gneE25_0" arrivalPos="92.80" arrivalSpeed="13.07" duration="34.00" routeLength="284.16" waitingTime="0.00" waitingCount="0" stopTime="0.00" timeLoss="10.04" rerouteNo="0" devices="tripinfo_141" vType="DEFAULT_VEHTYPE" speedFactor="0.96" vaporized=""/>
    <tripinfo id="10" depart="12.00" departLane="gneE3_0" departPos="5.10" departSpeed="0.00" departDelay="2.00" arrival="179.00" arrivalLane="gneE24_0" arrivalPos="85.60" arrivalSpeed="12.12" duration="167.00" routeLength="669.65" waitingTime="89.00" waitingCount="3" stopTime="0.00" timeLoss="113.25" rerouteNo="0" devices="tripinfo_10" vType="DEFAULT_VEHTYPE" speedFactor="0.94" vaporized=""/>
    <tripinfo id="146" depart="147.00" departLane="gneE18_0" departPos="5.10" departSpeed="0.00" departDelay="1.00" arrival="180.00" arrivalLane="-gneE25_0" arrivalPos="92.80" arrivalSpeed="14.07" duration="33.00" routeLength="284.16" waitingTime="0.00" waitingCount="0" stopTime="0.00" timeLoss="12.54" rerouteNo="0" devices="tripinfo_146" vType="DEFAULT_VEHTYPE" speedFactor="1.10" vaporized=""/>
    <tripinfo id="124" depart="127.00" departLane="gneE2_0" departPos="5.10" departSpeed="0.00" departDelay="3.00" arrival="181.00" arrivalLane="-gneE3_0" arrivalPos="185.60" arrivalSpeed="14.54" duration="54.00" routeLength="480.08" waitingTime="4.00" waitingCount="1" stopTime="0.00" timeLoss="20.63" rerouteNo="0" devices="tripinfo_124" vType="DEFAULT_VEHTYPE" speedFactor="1.09" vaporized=""/>
    <tripinfo id="55" depart="55.00" departLane="gneE38_0" departPos="5.10" departSpeed="0.00" departDelay="0.00" arrival="183.00" arrivalLane="-gneE25_0" arrivalPos="92.80" arrivalSpeed="12.51" duration="128.00" routeLength="880.23" waitingTime="38.00" waitingCount="1" stopTime="0.00" timeLoss="58.92" rerouteNo="0" devices="tripinfo_55" vType="DEFAULT_VEHTYPE" speedFactor="0.96" vaporized=""/>
    <tripinfo id="49" depart="49.00" departLane="gneE8_0" departPos="5.10" departSpeed="0.00" departDelay="0.00" arrival="184.00" arrivalLane="gneE34_0" arrivalPos="85.60" arrivalSpeed="13.45" duration="135.00" routeLength="781.73" waitingTime="56.00" waitingCount="2" stopTime="0.00" timeLoss="78.32" rerouteNo="0" devices="tripinfo_49" vType="DEFAULT_VEHTYPE" speedFactor="1.02" vaporized=""/>
    <tripinfo id="0" depart="0.00" departLane="gneE18_0" departPos="5.10" departSpeed="0.00" departDelay="0.00" arrival="187.00" arrivalLane="-gneE1_0" arrivalPos="85.60" arrivalSpeed="13.81" duration="187.00" routeLength="682.01" waitingTime="119.00" waitingCount="2" stopTime="0.00" timeLoss="138.10" rerouteNo="0" devices="tripinfo_0" vType="DEFAULT_VEHTYPE" speedFactor="1.06" vaporized=""/>
    <tripinfo id="164" depart="164.00" departLane="gneE3_0" departPos="5.10" departSpeed="0.00" departDelay="0.00" arrival="192.00" arrivalLane="gneE34_0" arrivalPos="85.60" arrivalSpeed="9.31" duration="28.00" routeLength="280.29" waitingTime="0.00" waitingCount="0" stopTime="0.00" timeLoss="8.77" rerouteNo="0" devices="tripinfo_164" vType="DEFAULT_VEHTYPE" speedFactor="1.10" vaporized=""/>
    <tripinfo id="40" depart="40.00" departLane="gneE11_0" departPos="5.10" departSpeed="0.00" departDelay="0.00" arrival="193.00" arrivalLane="-gneE25_0" arrivalPos="92.80" arrivalSpeed="15.04" duration="153.00" routeLength="1067.97" waitingTime="42.00" waitingCount="2" stopTime="0.00" timeLoss="83.25" rerouteNo="0" devices="tripinfo_40" vType="DEFAULT_VEHTYPE" speedFactor="1.13" vaporized=""/>
    <tripinfo id="16" depart="16.00" departLane="gneE10_0" departPos="5.10" departSpeed="0.00" departDelay="0.00" arrival="194.00" arrivalLane="gneE8_0" arrivalPos="85.60" arrivalSpeed="10.92" duration="178.00" routeLength="683.97" waitingTime="100.00" waitingCount="3" stopTime="0.00" timeLoss="128.73" rerouteNo="0" devices="tripinfo_16" vType="DEFAULT_VEHTYPE" speedFactor="1.05" vaporized=""/>
    <tripinfo id="26" depart="26.00" departLane="-gneE29_0" departPos="5.10" departSpeed="0.00" departDelay="0.00" arrival="194.00" arrivalLane="gneE5_0" arrivalPos="85.60" arrivalSpeed="12.42" duration="168.00" routeLength="707.67" waitingTime="91.00" waitingCount="2" stopTime="0.00" timeLoss="110.51" rerouteNo="0" devices="tripinfo_26" vType="DEFAULT_VEHTYPE" speedFactor="0.94" vaporized=""/>
    <tripinfo id="97" depart="97.00" departLane="-gneE6_0" departPos="5.10" departSpeed="0.00" departDelay="0.00" arrival="196.00" arrivalLane="gneE34_0" arrivalPos="85.60" arrivalSpeed="14.03" duration="99.00" routeLength="282.33" waitingTime="69.00" waitingCount="1" stopTime="0.00" timeLoss="78.74" rerouteNo="0" devices="tripinfo_97" vType="DEFAULT_VEHTYPE" speedFactor="1.06" vaporized=""/>
    <tripinfo id="110" depart="110.00" departLane="gneE7_0" departPos="5.10" departSpeed="0.00" departDelay="0.00" arrival="196.00" arrivalLane="gneE14_0" arrivalPos="89.60" arrivalSpeed="15.69" duration="86.00" routeLength="580.85" waitingTime="18.00" waitingCount="2" stopTime="0.00" timeLoss="47.31" rerouteNo="0" devices="tripinfo_110" vType="DEFAULT_VEHTYPE" speedFactor="1.15" vaporized=""/>
    <tripinfo id="112" depart="112.00" departLane="-gneE12_0" departPos="5.10" departSpeed="0.00" departDelay="0.00" arrival="199.00" arrivalLane="gneE14_0" arrivalPos="89.60" arrivalSpeed="12.67" duration="87.00" routeLength="668.38" waitingTime="11.00" waitingCount="1" stopTime="0.00" timeLoss="36.25" rerouteNo="0" devices="tripinfo_112" vType="DEFAULT_VEHTYPE" speedFactor="1.00" vaporized=""/>
    <tripinfo id="103" depart="103.00" departLane="-gneE4_0" departPos="5.10" departSpeed="0.00" departDelay="0.00" arrival="202.00" arrivalLane="-gneE11_0" arrivalPos="92.80" arrivalSpeed="10.26" duration="99.00" routeLength="781.52" waitingTime="13.00" waitingCount="2" stopTime="0.00" timeLoss="40.28" rerouteNo="0" devices="tripinfo_103" vType="DEFAULT_VEHTYPE" speedFactor="1.01" vaporized=""/>
    <tripinfo id="11" depart="11.00" departLane="-gneE32_0" departPos="5.10" departSpeed="0.00" departDelay="0.00" arrival="203.00" arrivalLane="-gneE19_0" arrivalPos="92.80" arrivalSpeed="11.60" duration="192.00" routeLength="1010.21" waitingTime="76.00" waitingCount="2" stopTime="0.00" timeLoss="103.46" rerouteNo="0" devices="tripinfo_11" vType="DEFAULT_VEHTYPE" speedFactor="0.86" vaporized=""/>
    <tripinfo id="71" depart="71.00" departLane="-gneE28_0" departPos="5.10" departSpeed="0.00" departDelay="0.00" arrival="205.00" arrivalLane="gneE34_0" arrivalPos="85.60" arrivalSpeed="14.83" duration="134.00" routeLength="699.16" waitingTime="59.00" waitingCount="2" stopTime="0.00" timeLoss="85.31" rerouteNo="0" devices="tripinfo_71" vType="DEFAULT_VEHTYPE" speedFactor="1.10" vaporized=""/>
    <tripinfo id="68" depart="68.00" departLane="-gneE13_0" departPos="5.10" departSpeed="0.00" departDelay="0.00" arrival="207.00" arrivalLane="gneE28_0" arrivalPos="216.45" arrivalSpeed="15.26" duration="139.00" routeLength="798.93" waitingTime="51.00" waitingCount="3" stopTime="0.00" timeLoss="86.13" rerouteNo="0" devices="tripinfo_68" vType="DEFAULT_VEHTYPE" speedFactor="1.17" vaporized=""/>
    <tripinfo id="38" depart="38.00" departLane="gneE4_0" departPos="5.10" departSpeed="0.00" departDelay="0.00" arrival="209.00" arrivalLane="-gneE7_0" arrivalPos="92.80" arrivalSpeed="12.44" duration="171.00" routeLength="587.17" waitingTime="105.00" waitingCount="2" stopTime="0.00" timeLoss="121.59" rerouteNo="0" devices="tripinfo_38" vType="DEFAULT_VEHTYPE" speedFactor="0.92" vaporized=""/>
    <tripinfo id="99" depart="99.00" departLane="gneE9_0" departPos="5.10" departSpeed="0.00" departDelay="0.00" arrival="210.00" arrivalLane="gneE32_0" arrivalPos="219.65" arrivalSpeed="12.46" duration="111.00" routeLength="1005.61" waitingTime="5.00" waitingCount="1" stopTime="0.00" timeLoss="35.35" rerouteNo="0" devices="tripinfo_99" vType="DEFAULT_VEHTYPE" speedFactor="0.98" vaporized=""/>
    <tripinfo id="107" depart="107.00" departLane="gneE7_0" departPos="5.10" departSpeed="0.00" departDelay="0.00" arrival="212.00" arrivalLane="gneE9_0" arrivalPos="89.60" arrivalSpeed="13.95" duration="105.00" routeLength="773.34" waitingTime="20.00" waitingCount="2" stopTime="0.00" timeLoss="48.43" rerouteNo="0" devices="tripinfo_107" vType="DEFAULT_VEHTYPE" speedFactor="1.02" vaporized=""/>
    <tripinfo id="161" depart="161.00" departLane="gneE3_0" departPos="5.10" departSpeed="0.00" departDelay="0.00" arrival="214.00" arrivalLane="gneE36_0" arrivalPos="292.80" arrivalSpeed="13.59" duration="53.00" routeLength="582.12" waitingTime="0.00" waitingCount="0" stopTime="0.00" timeLoss="8.78" rerouteNo="0" devices="tripinfo_161" vType="DEFAULT_VEHTYPE" speedFactor="0.99" vaporized=""/>
    <tripinfo id="80" depart="80.00" departLane="-gneE13_0" departPos="5.10" departSpeed="0.00" departDelay="0.00" arrival="215.00" arrivalLane="gneE2_0" arrivalPos="185.60" arrivalSpeed="8.45" duration="135.00" routeLength="678.61" waitingTime="58.00" waitingCount="1" stopTime="0.00" timeLoss="82.77" rerouteNo="0" devices="tripinfo_80" vType="DEFAULT_VEHTYPE" speedFactor="0.97" vaporized=""/>
    <tripinfo id="45" depart="45.00" departLane="-gneE18_0" departPos="5.10" departSpeed="0.00" departDelay="0.00" arrival="217.00" arrivalLane="gneE2_0" arrivalPos="185.60" arrivalSpeed="10.95" duration="172.00" routeLength="865.93" waitingTime="75.00" waitingCount="2" stopTime="0.00" timeLoss="106.78" rerouteNo="0" devices="tripinfo_45" vType="DEFAULT_VEHTYPE" speedFactor="1.01" vaporized=""/>
    <tripinfo id="15" depart="15.00" departLane="gneE3_0" departPos="5.10" departSpeed="0.00" departDelay="0.00" arrival="219.00" arrivalLane="gneE26_0" arrivalPos="92.80" arrivalSpeed="13.45" duration="204.00" routeLength="782.22" waitingTime="112.00" waitingCount="4" stopTime="0.00" timeLoss="147.29" rerouteNo="0" devices="tripinfo_15" vType="DEFAULT_VEHTYPE" speedFactor="1.03" vaporized=""/>
    <tripinfo id="121" depart="121.00" departLane="gneE1_0" departPos="5.10" departSpeed="0.00" departDelay="0.00" arrival="220.00" arrivalLane="gneE5_0" arrivalPos="85.60" arrivalSpeed="11.03" duration="99.00" routeLength="374.92" waitingTime="51.00" waitingCount="2" stopTime="0.00" timeLoss="64.76" rerouteNo="0" devices="tripinfo_121" vType="DEFAULT_VEHTYPE" speedFactor="0.83" vaporized=""/>
    <tripinfo id="50" depart="50.00" departLane="-gneE1_0" departPos="5.10" departSpeed="0.00" departDelay="0.00" arrival="221.00" arrivalLane="gneE26_0" arrivalPos="92.80" arrivalSpeed="12.64" duration="171.00" routeLength="876.85" waitingTime="70.00" waitingCount="3" stopTime="0.00" timeLoss="103.56" rerouteNo="0" devices="tripinfo_50" vType="DEFAULT_VEHTYPE" speedFactor="0.97" vaporized=""/>
    <tripinfo id="58" depart="58.00" departLane="-gneE30_0" departPos="5.10" departSpeed="0.00" departDelay="0.00" arrival="222.00" arrivalLane="gneE2_0" arrivalPos="185.60" arrivalSpeed="14.07" duration="164.00" routeLength="978.81" waitingTime="62.00" waitingCount="3" stopTime="0.00" timeLoss="95.43" rerouteNo="0" devices="tripinfo_58" vType="DEFAULT_VEHTYPE" speedFactor="1.04" vaporized=""/>
    <tripinfo id="93" depart="93.00" departLane="gneE35_0" departPos="5.10" departSpeed="0.00" departDelay="0.00" arrival="223.00" arrivalLane="-gneE24_0" arrivalPos="85.60" arrivalSpeed="12.55" duration="130.00" routeLength="982.01" waitingTime="24.00" waitingCount="2" stopTime="0.00" timeLoss="58.86" rerouteNo="0" devices="tripinfo_93" vType="DEFAULT_VEHTYPE" speedFactor="1.02" vaporized=""/>
    <tripinfo id="134" depart="134.00" departLane="gneE19_0" departPos="5.10" departSpeed="0.00" departDelay="0.00" arrival="223.00" arrivalLane="-gneE0_0" arrivalPos="92.80" arrivalSpeed="12.81" duration="89.00" routeLength="394.48" waitingTime="42.00" waitingCount="1" stopTime="0.00" timeLoss="57.29" rerouteNo="0" devices="tripinfo_134" vType="DEFAULT_VEHTYPE" speedFactor="0.95" vaporized=""/>
    <tripinfo id="194" depart="194.00" departLane="gneE6_0" departPos="5.10" departSpeed="0.00" departDelay="0.00" arrival="223.00" arrivalLane="gneE23_0" arrivalPos="89.60" arrivalSpeed="10.76" duration="29.00" routeLength="284.60" waitingTime="0.00" waitingCount="0" stopTime="0.00" timeLoss="11.38" rerouteNo="0" devices="tripinfo_194" vType="DEFAULT_VEHTYPE" speedFactor="1.16" vaporized=""/>
    <tripinfo id="131" depart="132.00" departLane="-gneE34_0" departPos="5.10" departSpeed="0.00" departDelay="1.00" arrival="224.00" arrivalLane="-gneE2_0" arrivalPos="185.60" arrivalSpeed="9.64" duration="92.00" routeLength="375.13" waitingTime="42.00" waitingCount="2" stopTime="0.00" timeLoss="62.79" rerouteNo="0" devices="tripinfo_131" vType="DEFAULT_VEHTYPE" speedFactor="0.96" vaporized=""/>
    <tripinfo id="82" depart="82.00" departLane="gneE35_0" departPos="5.10" departSpeed="0.00" departDelay="0.00" arrival="227.00" arrivalLane="-gneE12_0" arrivalPos="85.60" arrivalSpeed="14.47" duration="145.00" routeLength="1166.21" waitingTime="25.00" waitingCount="3" stopTime="0.00" timeLoss="66.70" rerouteNo="0" devices="tripinfo_82" vType="DEFAULT_VEHTYPE" speedFactor="1.12" vaporized=""/>
    <tripinfo id="57" depart="59.00" departLane="gneE4_0" departPos="5.10" departSpeed="0.00" departDelay="2.00" arrival="229.00" arrivalLane="gneE34_0" arrivalPos="85.60" arrivalSpeed="14.30" duration="170.00" routeLength="664.18" waitingTime="92.00" waitingCount="3" stopTime="0.00" timeLoss="120.93" rerouteNo="0" devices="tripinfo_57" vType="DEFAULT_VEHTYPE" speedFactor="1.04" vaporized=""/>
    <tripinfo id="111" depart="120.00" departLane="gneE10_0" departPos="5.10" departSpeed="0.00" departDelay="9.00" arrival="230.00" arrivalLane="gneE27_0" arrivalPos="92.80" arrivalSpeed="13.26" duration="110.00" routeLength="486.53" waitingTime="56.00" waitingCount="1" stopTime="0.00" timeLoss="73.29" rerouteNo="0" devices="tripinfo_111" vType="DEFAULT_VEHTYPE" speedFactor="0.98" vaporized=""/>