<?xml version="1.0" encoding="UTF-8"?>

<!-- generated on 2024-05-16 21:10:38 by Eclipse SUMO GUI Version 1.20.0
<configuration xmlns:xsi="http://www.w3.org/2001/XMLSchema-instance" xsi:noNamespaceSchemaLocation="http://sumo.dlr.de/xsd/sumoConfiguration.xsd">

    <input>
        <net-file value="sim_cfg/intelligent_traffic.net.xml"/>
        <route-files value="sim_cfg/intelligent_traffic.rou.xml"/>
    </input>

    <output>
        <tripinfo-output value="sim_cfg/tripinfo2.xml"/>
    </output>

    <time>
        <begin value="0"/>
        <end value="500"/>
        <step-length value="0.1"/>
    </time>

    <traci_server>
        <remote-port value="50055"/>
    </traci_server>

    <gui_only>
        <gui-settings-file value="sim_cfg/gui_settings.xml"/>
    </gui_only>

</configuration>
-->

<detector xmlns:xsi="http://www.w3.org/2001/XMLSchema-instance" xsi:noNamespaceSchemaLocation="http://sumo.dlr.de/xsd/det_e1_file.xsd">
    <interval begin="0.00" end="300.00" id="junction_0_D0.0" nVehContrib="60" flow="720.00" occupancy="5.22" speed="15.48" harmonicMeanSpeed="15.33" length="4.00" nVehEntered="60"/>
    <interval begin="0.00" end="300.00" id="junction_0_D0.1" nVehContrib="34" flow="408.00" occupancy="13.41" speed="8.30" harmonicMeanSpeed="3.38" length="4.00" nVehEntered="34"/>
    <interval begin="0.00" end="300.00" id="junction_0_D0.2" nVehContrib="22" flow="264.00" occupancy="14.75" speed="6.24" harmonicMeanSpeed="1.99" length="4.00" nVehEntered="22"/>
    <interval begin="0.00" end="300.00" id="junction_0_D1.0" nVehContrib="0" flow="0.00" occupancy="0.00" speed="-1.00" harmonicMeanSpeed="-1.00" length="-1.00" nVehEntered="0"/>
    <interval begin="0.00" end="300.00" id="junction_0_D1.1" nVehContrib="0" flow="0.00" occupancy="0.00" speed="-1.00" harmonicMeanSpeed="-1.00" length="-1.00" nVehEntered="0"/>
    <interval begin="0.00" end="300.00" id="junction_0_D1.2" nVehContrib="0" flow="0.00" occupancy="0.00" speed="-1.00" harmonicMeanSpeed="-1.00" length="-1.00" nVehEntered="0"/>
    <interval begin="0.00" end="300.00" id="junction_0_D2.0" nVehContrib="0" flow="0.00" occupancy="0.00" speed="-1.00" harmonicMeanSpeed="-1.00" length="-1.00" nVehEntered="0"/>
    <interval begin="0.00" end="300.00" id="junction_0_D2.1" nVehContrib="0" flow="0.00" occupancy="0.00" speed="-1.00" harmonicMeanSpeed="-1.00" length="-1.00" nVehEntered="0"/>
    <interval begin="0.00" end="300.00" id="junction_0_D2.2" nVehContrib="0" flow="0.00" occupancy="0.00" speed="-1.00" harmonicMeanSpeed="-1.00" length="-1.00" nVehEntered="0"/>
    <interval begin="0.00" end="300.00" id="junction_0_D3.0" nVehContrib="0" flow="0.00" occupancy="0.00" speed="-1.00" harmonicMeanSpeed="-1.00" length="-1.00" nVehEntered="0"/>
    <interval begin="0.00" end="300.00" id="junction_0_D3.1" nVehContrib="0" flow="0.00" occupancy="0.00" speed="-1.00" harmonicMeanSpeed="-1.00" length="-1.00" nVehEntered="0"/>
    <interval begin="0.00" end="300.00" id="junction_0_D3.2" nVehContrib="0" flow="0.00" occupancy="0.00" speed="-1.00" harmonicMeanSpeed="-1.00" length="-1.00" nVehEntered="0"/>
    <interval begin="300.00" end="500.00" id="junction_0_D0.0" nVehContrib="36" flow="648.00" occupancy="4.50" speed="16.03" harmonicMeanSpeed="16.00" length="4.00" nVehEntered="36"/>
    <interval begin="300.00" end="500.00" id="junction_0_D0.1" nVehContrib="9" flow="162.00" occupancy="16.05" speed="2.59" harmonicMeanSpeed="1.12" length="4.00" nVehEntered="9"/>
    <interval begin="300.00" end="500.00" id="junction_0_D0.2" nVehContrib="19" flow="342.00" occupancy="17.11" speed="5.99" harmonicMeanSpeed="2.22" length="4.00" nVehEntered="19"/>
    <interval begin="300.00" end="500.00" id="junction_0_D1.0" nVehContrib="0" flow="0.00" occupancy="0.00" speed="-1.00" harmonicMeanSpeed="-1.00" length="-1.00" nVehEntered="0"/>
    <interval begin="300.00" end="500.00" id="junction_0_D1.1" nVehContrib="0" flow="0.00" occupancy="0.00" speed="-1.00" harmonicMeanSpeed="-1.00" length="-1.00" nVehEntered="0"/>
    <interval begin="300.00" end="500.00" id="junction_0_D1.2" nVehContrib="0" flow="0.00" occupancy="0.00" speed="-1.00" harmonicMeanSpeed="-1.00" length="-1.00" nVehEntered="0"/>
    <interval begin="300.00" end="500.00" id="junction_0_D2.0" nVehContrib="0" flow="0.00" occupancy="0.00" speed="-1.00" harmonicMeanSpeed="-1.00" length="-1.00" nVehEntered="0"/>
    <interval begin="300.00" end="500.00" id="junction_0_D2.1" nVehContrib="0" flow="0.00" occupancy="0.00" speed="-1.00" harmonicMeanSpeed="-1.00" length="-1.00" nVehEntered="0"/>
    <interval begin="300.00" end="500.00" id="junction_0_D2.2" nVehContrib="0" flow="0.00" occupancy="0.00" speed="-1.00" harmonicMeanSpeed="-1.00" length="-1.00" nVehEntered="0"/>
    <interval begin="300.00" end="500.00" id="junction_0_D3.0" nVehContrib="0" flow="0.00" occupancy="0.00" speed="-1.00" harmonicMeanSpeed="-1.00" length="-1.00" nVehEntered="0"/>
    <interval begin="300.00" end="500.00" id="junction_0_D3.1" nVehContrib="0" flow="0.00" occupancy="0.00" speed="-1.00" harmonicMeanSpeed="-1.00" length="-1.00" nVehEntered="0"/>
    <interval begin="300.00" end="500.00" id="junction_0_D3.2" nVehContrib="0" flow="0.00" occupancy="0.00" speed="-1.00" harmonicMeanSpeed="-1.00" length="-1.00" nVehEntered="0"/>
</detector>
