<?xml version="1.0" encoding="UTF-8"?>

<!-- generated on 2024-05-18 14:58:25 by Eclipse SUMO GUI Version 1.20.0
<configuration xmlns:xsi="http://www.w3.org/2001/XMLSchema-instance" xsi:noNamespaceSchemaLocation="http://sumo.dlr.de/xsd/sumoConfiguration.xsd">

    <input>
        <net-file value="sim_cfg/intelligent_traffic.net.xml"/>
        <route-files value="sim_cfg/intelligent_traffic.rou.xml"/>
    </input>

    <output>
        <tripinfo-output value="sim_cfg/tripinfo2.xml"/>
    </output>

    <time>
        <begin value="0"/>
        <end value="500"/>
        <step-length value="0.1"/>
    </time>

    <traci_server>
        <remote-port value="49210"/>
    </traci_server>

    <gui_only>
        <gui-settings-file value="sim_cfg/gui_settings.xml"/>
    </gui_only>

</configuration>
-->

<tripinfos xmlns:xsi="http://www.w3.org/2001/XMLSchema-instance" xsi:noNamespaceSchemaLocation="http://sumo.dlr.de/xsd/tripinfo_file.xsd">
    <tripinfo id="flow4.0" depart="2.40" departLane="end2_junction_0" departPos="4.10" departSpeed="0.00" departDelay="2.40" arrival="40.90" arrivalLane="junction_end4_1" arrivalPos="486.40" arrivalSpeed="33.30" duration="38.50" routeLength="995.90" waitingTime="0.00" waitingCount="0" stopTime="0.00" timeLoss="8.54" rerouteNo="0" devices="tripinfo_flow4.0" vType="vtypeauto" speedFactor="1.86" vaporized=""/>
    <tripinfo id="flow10.0" depart="2.50" departLane="end4_junction_0" departPos="4.10" departSpeed="0.00" departDelay="2.50" arrival="40.90" arrivalLane="junction_end2_1" arrivalPos="486.40" arrivalSpeed="33.24" duration="38.40" routeLength="995.90" waitingTime="0.00" waitingCount="0" stopTime="0.00" timeLoss="8.44" rerouteNo="0" devices="tripinfo_flow10.0" vType="vtypeauto" speedFactor="1.98" vaporized=""/>
    <tripinfo id="flow3.0" depart="0.00" departLane="end2_junction_0" departPos="4.10" departSpeed="0.00" departDelay="0.00" arrival="42.70" arrivalLane="junction_end1_0" arrivalPos="486.40" arrivalSpeed="33.21" duration="42.70" routeLength="977.73" waitingTime="0.00" waitingCount="0" stopTime="0.00" timeLoss="12.84" rerouteNo="0" devices="tripinfo_flow3.0" vType="vtypeauto" speedFactor="1.94" vaporized=""/>
    <tripinfo id="flow0.0" depart="0.00" departLane="end1_junction_0" departPos="4.10" departSpeed="0.00" departDelay="0.00" arrival="42.80" arrivalLane="junction_end4_0" arrivalPos="486.40" arrivalSpeed="33.31" duration="42.80" routeLength="977.73" waitingTime="0.00" waitingCount="0" stopTime="0.00" timeLoss="13.02" rerouteNo="0" devices="tripinfo_flow0.0" vType="vtypeauto" speedFactor="1.94" vaporized=""/>
    <tripinfo id="flow6.0" depart="0.00" departLane="end3_junction_0" departPos="4.10" departSpeed="0.00" departDelay="0.00" arrival="43.00" arrivalLane="junction_end2_0" arrivalPos="486.40" arrivalSpeed="33.32" duration="43.00" routeLength="977.73" waitingTime="0.00" waitingCount="0" stopTime="0.00" timeLoss="13.19" rerouteNo="0" devices="tripinfo_flow6.0" vType="vtypeauto" speedFactor="1.93" vaporized=""/>
    <tripinfo id="flow9.0" depart="0.00" departLane="end4_junction_0" departPos="4.10" departSpeed="0.00" departDelay="0.00" arrival="43.10" arrivalLane="junction_end3_0" arrivalPos="486.40" arrivalSpeed="33.26" duration="43.10" routeLength="977.73" waitingTime="0.00" waitingCount="0" stopTime="0.00" timeLoss="13.30" rerouteNo="0" devices="tripinfo_flow9.0" vType="vtypeauto" speedFactor="1.94" vaporized=""/>
    <tripinfo id="flow9.1" depart="5.00" departLane="end4_junction_0" departPos="4.10" departSpeed="0.00" departDelay="4.00" arrival="49.20" arrivalLane="junction_end3_0" arrivalPos="486.40" arrivalSpeed="33.30" duration="44.20" routeLength="977.73" waitingTime="0.00" waitingCount="0" stopTime="0.00" timeLoss="14.46" rerouteNo="0" devices="tripinfo_flow9.1" vType="vtypeauto" speedFactor="2.00" vaporized=""/>
    <tripinfo id="flow3.1" depart="4.90" departLane="end2_junction_0" departPos="4.10" departSpeed="0.00" departDelay="3.90" arrival="49.30" arrivalLane="junction_end1_0" arrivalPos="486.40" arrivalSpeed="33.24" duration="44.40" routeLength="977.73" waitingTime="0.00" waitingCount="0" stopTime="0.00" timeLoss="14.57" rerouteNo="0" devices="tripinfo_flow3.1" vType="vtypeauto" speedFactor="1.95" vaporized=""/>
    <tripinfo id="flow10.1" depart="7.50" departLane="end4_junction_0" departPos="4.10" departSpeed="0.00" departDelay="6.50" arrival="51.10" arrivalLane="junction_end2_1" arrivalPos="486.40" arrivalSpeed="33.26" duration="43.60" routeLength="995.90" waitingTime="0.00" waitingCount="0" stopTime="0.00" timeLoss="13.65" rerouteNo="0" devices="tripinfo_flow10.1" vType="vtypeauto" speedFactor="1.90" vaporized=""/>
    <tripinfo id="flow6.1" depart="4.90" departLane="end3_junction_0" departPos="4.10" departSpeed="0.00" departDelay="3.90" arrival="51.50" arrivalLane="junction_end2_0" arrivalPos="486.40" arrivalSpeed="33.31" duration="46.60" routeLength="977.73" waitingTime="0.00" waitingCount="0" stopTime="0.00" timeLoss="16.71" rerouteNo="0" devices="tripinfo_flow6.1" vType="vtypeauto" speedFactor="1.97" vaporized=""/>
    <tripinfo id="flow0.1" depart="4.90" departLane="end1_junction_0" departPos="4.10" departSpeed="0.00" departDelay="3.90" arrival="52.00" arrivalLane="junction_end4_0" arrivalPos="486.40" arrivalSpeed="33.27" duration="47.10" routeLength="977.73" waitingTime="0.00" waitingCount="0" stopTime="0.00" timeLoss="17.17" rerouteNo="0" devices="tripinfo_flow0.1" vType="vtypeauto" speedFactor="1.83" vaporized=""/>
    <tripinfo id="flow4.1" depart="7.30" departLane="end2_junction_0" departPos="4.10" departSpeed="0.00" departDelay="6.30" arrival="52.70" arrivalLane="junction_end4_1" arrivalPos="486.40" arrivalSpeed="33.24" duration="45.40" routeLength="995.90" waitingTime="0.00" waitingCount="0" stopTime="0.00" timeLoss="15.43" rerouteNo="0" devices="tripinfo_flow4.1" vType="vtypeauto" speedFactor="1.93" vaporized=""/>
    <tripinfo id="flow9.2" depart="10.10" departLane="end4_junction_0" departPos="4.10" departSpeed="0.00" departDelay="8.10" arrival="56.30" arrivalLane="junction_end3_0" arrivalPos="486.40" arrivalSpeed="33.21" duration="46.20" routeLength="977.73" waitingTime="0.00" waitingCount="0" stopTime="0.00" timeLoss="16.36" rerouteNo="0" devices="tripinfo_flow9.2" vType="vtypeauto" speedFactor="1.91" vaporized=""/>
    <tripinfo id="flow3.2" depart="10.00" departLane="end2_junction_0" departPos="4.10" departSpeed="0.00" departDelay="8.00" arrival="57.30" arrivalLane="junction_end1_0" arrivalPos="486.40" arrivalSpeed="33.28" duration="47.30" routeLength="977.73" waitingTime="0.00" waitingCount="0" stopTime="0.00" timeLoss="17.44" rerouteNo="0" devices="tripinfo_flow3.2" vType="vtypeauto" speedFactor="1.90" vaporized=""/>
    <tripinfo id="flow6.2" depart="10.00" departLane="end3_junction_0" departPos="4.10" departSpeed="0.00" departDelay="8.00" arrival="58.20" arrivalLane="junction_end2_0" arrivalPos="486.40" arrivalSpeed="33.29" duration="48.20" routeLength="977.73" waitingTime="0.00" waitingCount="0" stopTime="0.00" timeLoss="18.42" rerouteNo="0" devices="tripinfo_flow6.2" vType="vtypeauto" speedFactor="1.94" vaporized=""/>
    <tripinfo id="flow0.2" depart="10.00" departLane="end1_junction_0" departPos="4.10" departSpeed="0.00" departDelay="8.00" arrival="58.50" arrivalLane="junction_end4_0" arrivalPos="486.40" arrivalSpeed="33.26" duration="48.50" routeLength="977.73" waitingTime="0.00" waitingCount="0" stopTime="0.00" timeLoss="18.60" rerouteNo="0" devices="tripinfo_flow0.2" vType="vtypeauto" speedFactor="1.85" vaporized=""/>
    <tripinfo id="flow4.2" depart="12.40" departLane="end2_junction_0" departPos="4.10" departSpeed="0.00" departDelay="10.40" arrival="59.50" arrivalLane="junction_end4_1" arrivalPos="486.40" arrivalSpeed="33.21" duration="47.10" routeLength="995.90" waitingTime="0.00" waitingCount="0" stopTime="0.00" timeLoss="17.13" rerouteNo="0" devices="tripinfo_flow4.2" vType="vtypeauto" speedFactor="1.97" vaporized=""/>
    <tripinfo id="flow10.2" depart="11.80" departLane="end4_junction_0" departPos="4.10" departSpeed="0.00" departDelay="9.80" arrival="60.10" arrivalLane="junction_end2_1" arrivalPos="486.40" arrivalSpeed="33.26" duration="48.30" routeLength="995.90" waitingTime="0.00" waitingCount="0" stopTime="0.00" timeLoss="18.41" rerouteNo="0" devices="tripinfo_flow10.2" vType="vtypeauto" speedFactor="1.97" vaporized=""/>
    <tripinfo id="flow3.3" depart="14.90" departLane="end2_junction_0" departPos="4.10" departSpeed="0.00" departDelay="11.90" arrival="63.70" arrivalLane="junction_end1_0" arrivalPos="486.40" arrivalSpeed="33.26" duration="48.80" routeLength="977.73" waitingTime="0.00" waitingCount="0" stopTime="0.00" timeLoss="18.96" rerouteNo="0" devices="tripinfo_flow3.3" vType="vtypeauto" speedFactor="2.00" vaporized=""/>
    <tripinfo id="flow0.3" depart="14.30" departLane="end1_junction_0" departPos="4.10" departSpeed="0.00" departDelay="11.30" arrival="64.20" arrivalLane="junction_end4_0" arrivalPos="486.40" arrivalSpeed="33.30" duration="49.90" routeLength="977.73" waitingTime="0.00" waitingCount="0" stopTime="0.00" timeLoss="20.11" rerouteNo="0" devices="tripinfo_flow0.3" vType="vtypeauto" speedFactor="1.96" vaporized=""/>
    <tripinfo id="flow4.3" depart="17.30" departLane="end2_junction_0" departPos="4.10" departSpeed="0.00" departDelay="14.30" arrival="64.20" arrivalLane="junction_end4_1" arrivalPos="486.40" arrivalSpeed="33.25" duration="46.90" routeLength="995.90" waitingTime="0.00" waitingCount="0" stopTime="0.00" timeLoss="17.01" rerouteNo="0" devices="tripinfo_flow4.3" vType="vtypeauto" speedFactor="1.97" vaporized=""/>
    <tripinfo id="flow9.3" depart="14.30" departLane="end4_junction_0" departPos="4.10" departSpeed="0.00" departDelay="11.30" arrival="64.30" arrivalLane="junction_end3_0" arrivalPos="486.40" arrivalSpeed="33.27" duration="50.00" routeLength="977.73" waitingTime="0.00" waitingCount="0" stopTime="0.00" timeLoss="20.14" rerouteNo="0" devices="tripinfo_flow9.3" vType="vtypeauto" speedFactor="1.91" vaporized=""/>
    <tripinfo id="flow6.3" depart="14.90" departLane="end3_junction_0" departPos="4.10" departSpeed="0.00" departDelay="11.90" arrival="64.70" arrivalLane="junction_end2_0" arrivalPos="486.40" arrivalSpeed="33.23" duration="49.80" routeLength="977.73" waitingTime="0.00" waitingCount="0" stopTime="0.00" timeLoss="19.92" rerouteNo="0" devices="tripinfo_flow6.3" vType="vtypeauto" speedFactor="1.89" vaporized=""/>
    <tripinfo id="flow10.3" depart="16.20" departLane="end4_junction_0" departPos="4.10" departSpeed="0.00" departDelay="13.20" arrival="65.20" arrivalLane="junction_end2_1" arrivalPos="486.40" arrivalSpeed="33.31" duration="49.00" routeLength="995.90" waitingTime="0.00" waitingCount="0" stopTime="0.00" timeLoss="19.10" rerouteNo="0" devices="tripinfo_flow10.3" vType="vtypeauto" speedFactor="1.96" vaporized=""/>
    <tripinfo id="flow0.4" depart="18.60" departLane="end1_junction_0" departPos="4.10" departSpeed="0.00" departDelay="14.60" arrival="68.20" arrivalLane="junction_end4_0" arrivalPos="486.40" arrivalSpeed="33.30" duration="49.60" routeLength="977.73" waitingTime="0.00" waitingCount="0" stopTime="0.00" timeLoss="19.74" rerouteNo="0" devices="tripinfo_flow0.4" vType="vtypeauto" speedFactor="1.95" vaporized=""/>
    <tripinfo id="flow3.4" depart="20.00" departLane="end2_junction_0" departPos="4.10" departSpeed="0.00" departDelay="16.00" arrival="68.70" arrivalLane="junction_end1_0" arrivalPos="486.40" arrivalSpeed="33.24" duration="48.70" routeLength="977.73" waitingTime="0.00" waitingCount="0" stopTime="0.00" timeLoss="18.92" rerouteNo="0" devices="tripinfo_flow3.4" vType="vtypeauto" speedFactor="1.93" vaporized=""/>
    <tripinfo id="flow9.4" depart="18.70" departLane="end4_junction_0" departPos="4.10" departSpeed="0.00" departDelay="14.70" arrival="69.20" arrivalLane="junction_end3_0" arrivalPos="486.40" arrivalSpeed="33.22" duration="50.50" routeLength="977.73" waitingTime="0.00" waitingCount="0" stopTime="0.00" timeLoss="20.70" rerouteNo="0" devices="tripinfo_flow9.4" vType="vtypeauto" speedFactor="1.96" vaporized=""/>
    <tripinfo id="flow10.4" depart="21.20" departLane="end4_junction_0" departPos="4.10" departSpeed="0.00" departDelay="17.20" arrival="69.20" arrivalLane="junction_end2_1" arrivalPos="486.40" arrivalSpeed="33.25" duration="48.00" routeLength="995.90" waitingTime="0.00" waitingCount="0" stopTime="0.00" timeLoss="18.03" rerouteNo="0" devices="tripinfo_flow10.4" vType="vtypeauto" speedFactor="1.95" vaporized=""/>
    <tripinfo id="flow6.4" depart="20.00" departLane="end3_junction_0" departPos="4.10" departSpeed="0.00" departDelay="16.00" arrival="69.70" arrivalLane="junction_end2_0" arrivalPos="486.40" arrivalSpeed="33.32" duration="49.70" routeLength="977.73" waitingTime="0.00" waitingCount="0" stopTime="0.00" timeLoss="19.89" rerouteNo="0" devices="tripinfo_flow6.4" vType="vtypeauto" speedFactor="1.99" vaporized=""/>
    <tripinfo id="flow4.4" depart="21.70" departLane="end2_junction_0" departPos="4.10" departSpeed="0.00" departDelay="17.70" arrival="70.80" arrivalLane="junction_end4_1" arrivalPos="486.40" arrivalSpeed="33.21" duration="49.10" routeLength="995.90" waitingTime="0.00" waitingCount="0" stopTime="0.00" timeLoss="19.19" rerouteNo="0" devices="tripinfo_flow4.4" vType="vtypeauto" speedFactor="1.87" vaporized=""/>
    <tripinfo id="flow9.5" depart="22.40" departLane="end4_junction_0" departPos="4.10" departSpeed="0.00" departDelay="17.40" arrival="73.10" arrivalLane="junction_end3_0" arrivalPos="486.40" arrivalSpeed="33.21" duration="50.70" routeLength="977.73" waitingTime="0.00" waitingCount="0" stopTime="0.00" timeLoss="20.84" rerouteNo="0" devices="tripinfo_flow9.5" vType="vtypeauto" speedFactor="1.98" vaporized=""/>
    <tripinfo id="flow10.5" depart="24.70" departLane="end4_junction_0" departPos="4.10" departSpeed="0.00" departDelay="19.70" arrival="73.70" arrivalLane="junction_end2_1" arrivalPos="486.40" arrivalSpeed="33.27" duration="49.00" routeLength="995.90" waitingTime="0.00" waitingCount="0" stopTime="0.00" timeLoss="19.10" rerouteNo="0" devices="tripinfo_flow10.5" vType="vtypeauto" speedFactor="1.94" vaporized=""/>
    <tripinfo id="flow3.5" depart="24.20" departLane="end2_junction_0" departPos="4.10" departSpeed="0.00" departDelay="19.20" arrival="74.80" arrivalLane="junction_end1_0" arrivalPos="486.40" arrivalSpeed="33.29" duration="50.60" routeLength="977.73" waitingTime="0.00" waitingCount="0" stopTime="0.00" timeLoss="20.79" rerouteNo="0" devices="tripinfo_flow3.5" vType="vtypeauto" speedFactor="1.96" vaporized=""/>
    <tripinfo id="flow6.5" depart="24.30" departLane="end3_junction_0" departPos="4.10" departSpeed="0.00" departDelay="19.30" arrival="75.00" arrivalLane="junction_end2_0" arrivalPos="486.40" arrivalSpeed="33.25" duration="50.70" routeLength="977.73" waitingTime="0.00" waitingCount="0" stopTime="0.00" timeLoss="20.83" rerouteNo="0" devices="tripinfo_flow6.5" vType="vtypeauto" speedFactor="1.88" vaporized=""/>
    <tripinfo id="flow0.5" depart="23.50" departLane="end1_junction_0" departPos="4.10" departSpeed="0.00" departDelay="18.50" arrival="75.80" arrivalLane="junction_end4_0" arrivalPos="486.40" arrivalSpeed="33.32" duration="52.30" routeLength="977.73" waitingTime="0.00" waitingCount="0" stopTime="0.00" timeLoss="22.35" rerouteNo="0" devices="tripinfo_flow0.5" vType="vtypeauto" speedFactor="1.73" vaporized=""/>
    <tripinfo id="flow4.5" depart="25.90" departLane="end2_junction_0" departPos="4.10" departSpeed="0.00" departDelay="20.90" arrival="76.40" arrivalLane="junction_end4_1" arrivalPos="486.40" arrivalSpeed="33.22" duration="50.50" routeLength="995.90" waitingTime="0.00" waitingCount="0" stopTime="0.00" timeLoss="20.57" rerouteNo="0" devices="tripinfo_flow4.5" vType="vtypeauto" speedFactor="1.93" vaporized=""/>
    <tripinfo id="flow9.6" depart="27.20" departLane="end4_junction_0" departPos="4.10" departSpeed="0.00" departDelay="21.20" arrival="77.90" arrivalLane="junction_end3_0" arrivalPos="486.40" arrivalSpeed="33.28" duration="50.70" routeLength="977.73" waitingTime="0.00" waitingCount="0" stopTime="0.00" timeLoss="20.89" rerouteNo="0" devices="tripinfo_flow9.6" vType="vtypeauto" speedFactor="1.93" vaporized=""/>
    <tripinfo id="flow10.6" depart="29.70" departLane="end4_junction_0" departPos="4.10" departSpeed="0.00" departDelay="23.70" arrival="78.30" arrivalLane="junction_end2_1" arrivalPos="486.40" arrivalSpeed="33.21" duration="48.60" routeLength="995.90" waitingTime="0.00" waitingCount="0" stopTime="0.00" timeLoss="18.71" rerouteNo="0" devices="tripinfo_flow10.6" vType="vtypeauto" speedFactor="2.00" vaporized=""/>
    <tripinfo id="flow6.6" depart="27.80" departLane="end3_junction_0" departPos="4.10" departSpeed="0.00" departDelay="21.80" arrival="78.60" arrivalLane="junction_end2_0" arrivalPos="486.40" arrivalSpeed="33.24" duration="50.80" routeLength="977.73" waitingTime="0.00" waitingCount="0" stopTime="0.00" timeLoss="21.01" rerouteNo="0" devices="tripinfo_flow6.6" vType="vtypeauto" speedFactor="1.97" vaporized=""/>
    <tripinfo id="flow0.6" depart="26.90" departLane="end1_junction_0" departPos="4.10" departSpeed="0.00" departDelay="20.90" arrival="79.30" arrivalLane="junction_end4_0" arrivalPos="486.40" arrivalSpeed="33.23" duration="52.40" routeLength="977.73" waitingTime="0.00" waitingCount="0" stopTime="0.00" timeLoss="22.56" rerouteNo="0" devices="tripinfo_flow0.6" vType="vtypeauto" speedFactor="1.89" vaporized=""/>
    <tripinfo id="flow4.6" depart="30.90" departLane="end2_junction_0" departPos="4.10" departSpeed="0.00" departDelay="24.90" arrival="79.90" arrivalLane="junction_end4_1" arrivalPos="486.40" arrivalSpeed="33.32" duration="49.00" routeLength="995.90" waitingTime="0.00" waitingCount="0" stopTime="0.00" timeLoss="19.07" rerouteNo="0" devices="tripinfo_flow4.6" vType="vtypeauto" speedFactor="1.92" vaporized=""/>
    <tripinfo id="flow3.6" depart="28.40" departLane="end2_junction_0" departPos="4.10" departSpeed="0.00" departDelay="22.40" arrival="80.10" arrivalLane="junction_end1_0" arrivalPos="486.40" arrivalSpeed="33.30" duration="51.70" routeLength="977.73" waitingTime="0.00" waitingCount="0" stopTime="0.00" timeLoss="21.85" rerouteNo="0" devices="tripinfo_flow3.6" vType="vtypeauto" speedFactor="1.94" vaporized=""/>
    <tripinfo id="flow9.7" depart="32.40" departLane="end4_junction_0" departPos="4.10" departSpeed="0.00" departDelay="25.40" arrival="82.60" arrivalLane="junction_end3_0" arrivalPos="486.40" arrivalSpeed="33.31" duration="50.20" routeLength="977.73" waitingTime="0.00" waitingCount="0" stopTime="0.00" timeLoss="20.40" rerouteNo="0" devices="tripinfo_flow9.7" vType="vtypeauto" speedFactor="1.91" vaporized=""/>
    <tripinfo id="flow0.7" depart="30.50" departLane="end1_junction_0" departPos="4.10" departSpeed="0.00" departDelay="23.50" arrival="83.60" arrivalLane="junction_end4_0" arrivalPos="486.40" arrivalSpeed="33.26" duration="53.10" routeLength="977.73" waitingTime="0.00" waitingCount="0" stopTime="0.00" timeLoss="23.32" rerouteNo="0" devices="tripinfo_flow0.7" vType="vtypeauto" speedFactor="1.87" vaporized=""/>
    <tripinfo id="flow6.7" depart="32.70" departLane="end3_junction_0" departPos="4.10" departSpeed="0.00" departDelay="25.70" arrival="83.90" arrivalLane="junction_end2_0" arrivalPos="486.40" arrivalSpeed="33.27" duration="51.20" routeLength="977.73" waitingTime="0.00" waitingCount="0" stopTime="0.00" timeLoss="21.42" rerouteNo="0" devices="tripinfo_flow6.7" vType="vtypeauto" speedFactor="1.98" vaporized=""/>
    <tripinfo id="flow3.7" depart="32.20" departLane="end2_junction_0" departPos="4.10" departSpeed="0.00" departDelay="25.20" arrival="84.10" arrivalLane="junction_end1_0" arrivalPos="486.40" arrivalSpeed="33.21" duration="51.90" routeLength="977.73" waitingTime="0.00" waitingCount="0" stopTime="0.00" timeLoss="22.03" rerouteNo="0" devices="tripinfo_flow3.7" vType="vtypeauto" speedFactor="1.87" vaporized=""/>
    <tripinfo id="flow0.8" depart="34.00" departLane="end1_junction_0" departPos="4.10" departSpeed="0.00" departDelay="26.00" arrival="87.90" arrivalLane="junction_end4_0" arrivalPos="486.40" arrivalSpeed="33.29" duration="53.90" routeLength="977.73" waitingTime="0.00" waitingCount="0" stopTime="0.00" timeLoss="24.09" rerouteNo="0" devices="tripinfo_flow0.8" vType="vtypeauto" speedFactor="1.97" vaporized=""/>
    <tripinfo id="flow9.8" depart="36.50" departLane="end4_junction_0" departPos="4.10" departSpeed="0.00" departDelay="28.50" arrival="88.20" arrivalLane="junction_end3_0" arrivalPos="486.40" arrivalSpeed="33.26" duration="51.70" routeLength="977.73" waitingTime="0.00" waitingCount="0" stopTime="0.00" timeLoss="21.82" rerouteNo="0" devices="tripinfo_flow9.8" vType="vtypeauto" speedFactor="1.97" vaporized=""/>
    <tripinfo id="flow3.8" depart="37.10" departLane="end2_junction_0" departPos="4.10" departSpeed="0.00" departDelay="29.10" arrival="89.90" arrivalLane="junction_end1_0" arrivalPos="486.40" arrivalSpeed="33.30" duration="52.80" routeLength="977.73" waitingTime="0.00" waitingCount="0" stopTime="0.00" timeLoss="22.99" rerouteNo="0" devices="tripinfo_flow3.8" vType="vtypeauto" speedFactor="1.91" vaporized=""/>
    <tripinfo id="flow6.8" depart="37.60" departLane="end3_junction_0" departPos="4.10" departSpeed="0.00" departDelay="29.60" arrival="90.80" arrivalLane="junction_end2_0" arrivalPos="486.40" arrivalSpeed="33.23" duration="53.20" routeLength="977.73" waitingTime="0.00" waitingCount="0" stopTime="0.00" timeLoss="23.41" rerouteNo="0" devices="tripinfo_flow6.8" vType="vtypeauto" speedFactor="1.95" vaporized=""/>
    <tripinfo id="flow0.9" depart="38.90" departLane="end1_junction_0" departPos="4.10" departSpeed="0.00" departDelay="29.90" arrival="92.80" arrivalLane="junction_end4_0" arrivalPos="486.40" arrivalSpeed="33.31" duration="53.90" routeLength="977.73" waitingTime="0.00" waitingCount="0" stopTime="0.00" timeLoss="24.05" rerouteNo="0" devices="tripinfo_flow0.9" vType="vtypeauto" speedFactor="1.99" vaporized=""/>
    <tripinfo id="flow5.0" depart="2.50" departLane="end2_junction_0" departPos="4.10" departSpeed="0.00" departDelay="2.50" arrival="93.80" arrivalLane="junction_end3_2" arrivalPos="486.40" arrivalSpeed="33.28" duration="91.30" routeLength="993.21" waitingTime="38.60" waitingCount="1" stopTime="0.00" timeLoss="61.04" rerouteNo="0" devices="tripinfo_flow5.0" vType="vtypeauto" speedFactor="1.99" vaporized=""/>
    <tripinfo id="flow9.9" depart="41.40" departLane="end4_junction_0" departPos="4.10" departSpeed="0.00" departDelay="32.40" arrival="93.90" arrivalLane="junction_end3_0" arrivalPos="486.40" arrivalSpeed="33.21" duration="52.50" routeLength="977.73" waitingTime="0.00" waitingCount="0" stopTime="0.00" timeLoss="22.70" rerouteNo="0" devices="tripinfo_flow9.9" vType="vtypeauto" speedFactor="1.98" vaporized=""/>
    <tripinfo id="flow11.0" depart="2.60" departLane="end4_junction_0" departPos="4.10" departSpeed="0.00" departDelay="2.60" arrival="94.00" arrivalLane="junction_end1_2" arrivalPos="486.40" arrivalSpeed="33.32" duration="91.40" routeLength="993.21" waitingTime="39.30" waitingCount="1" stopTime="0.00" timeLoss="61.03" rerouteNo="0" devices="tripinfo_flow11.0" vType="vtypeauto" speedFactor="1.89" vaporized=""/>
    <tripinfo id="flow3.9" depart="42.20" departLane="end2_junction_0" departPos="4.10" departSpeed="0.00" departDelay="33.20" arrival="94.30" arrivalLane="junction_end1_0" arrivalPos="486.40" arrivalSpeed="33.23" duration="52.10" routeLength="977.73" waitingTime="0.00" waitingCount="0" stopTime="0.00" timeLoss="22.16" rerouteNo="0" devices="tripinfo_flow3.9" vType="vtypeauto" speedFactor="1.71" vaporized=""/>
    <tripinfo id="flow6.9" depart="42.80" departLane="end3_junction_0" departPos="4.10" departSpeed="0.00" departDelay="33.80" arrival="95.00" arrivalLane="junction_end2_0" arrivalPos="486.40" arrivalSpeed="33.27" duration="52.20" routeLength="977.73" waitingTime="0.00" waitingCount="0" stopTime="0.00" timeLoss="22.24" rerouteNo="0" devices="tripinfo_flow6.9" vType="vtypeauto" speedFactor="1.75" vaporized=""/>
    <tripinfo id="flow5.1" depart="7.40" departLane="end2_junction_0" departPos="4.10" departSpeed="0.00" departDelay="6.40" arrival="96.70" arrivalLane="junction_end3_2" arrivalPos="486.40" arrivalSpeed="33.30" duration="89.30" routeLength="993.21" waitingTime="19.80" waitingCount="1" stopTime="0.00" timeLoss="59.01" rerouteNo="0" devices="tripinfo_flow5.1" vType="vtypeauto" speedFactor="1.99" vaporized=""/>
    <tripinfo id="flow11.1" depart="7.60" departLane="end4_junction_0" departPos="4.10" departSpeed="0.00" departDelay="6.60" arrival="96.90" arrivalLane="junction_end1_2" arrivalPos="486.40" arrivalSpeed="33.29" duration="89.30" routeLength="993.21" waitingTime="20.20" waitingCount="1" stopTime="0.00" timeLoss="58.90" rerouteNo="0" devices="tripinfo_flow11.1" vType="vtypeauto" speedFactor="1.88" vaporized=""/>
    <tripinfo id="flow0.10" depart="44.20" departLane="end1_junction_0" departPos="4.10" departSpeed="0.00" departDelay="34.20" arrival="97.10" arrivalLane="junction_end4_0" arrivalPos="486.40" arrivalSpeed="33.26" duration="52.90" routeLength="977.73" waitingTime="0.00" waitingCount="0" stopTime="0.00" timeLoss="23.11" rerouteNo="0" devices="tripinfo_flow0.10" vType="vtypeauto" speedFactor="1.97" vaporized=""/>
    <tripinfo id="flow9.10" depart="46.60" departLane="end4_junction_0" departPos="4.10" departSpeed="0.00" departDelay="36.60" arrival="98.40" arrivalLane="junction_end3_0" arrivalPos="486.40" arrivalSpeed="33.25" duration="51.80" routeLength="977.73" waitingTime="0.00" waitingCount="0" stopTime="0.00" timeLoss="21.97" rerouteNo="0" devices="tripinfo_flow9.10" vType="vtypeauto" speedFactor="1.95" vaporized=""/>
    <tripinfo id="flow5.2" depart="12.50" departLane="end2_junction_0" departPos="4.10" departSpeed="0.00" departDelay="10.50" arrival="99.50" arrivalLane="junction_end3_2" arrivalPos="486.40" arrivalSpeed="33.27" duration="87.00" routeLength="993.21" waitingTime="13.40" waitingCount="1" stopTime="0.00" timeLoss="56.73" rerouteNo="0" devices="tripinfo_flow5.2" vType="vtypeauto" speedFactor="1.99" vaporized=""/>
    <tripinfo id="flow6.10" depart="46.90" departLane="end3_junction_0" departPos="4.10" departSpeed="0.00" departDelay="36.90" arrival="99.60" arrivalLane="junction_end2_0" arrivalPos="486.40" arrivalSpeed="33.28" duration="52.70" routeLength="977.73" waitingTime="0.00" waitingCount="0" stopTime="0.00" timeLoss="22.85" rerouteNo="0" devices="tripinfo_flow6.10" vType="vtypeauto" speedFactor="1.99" vaporized=""/>
    <tripinfo id="flow11.2" depart="14.20" departLane="end4_junction_0" departPos="4.10" departSpeed="0.00" departDelay="12.20" arrival="99.70" arrivalLane="junction_end1_2" arrivalPos="486.40" arrivalSpeed="33.30" duration="85.50" routeLength="993.21" waitingTime="14.20" waitingCount="1" stopTime="0.00" timeLoss="55.16" rerouteNo="0" devices="tripinfo_flow11.2" vType="vtypeauto" speedFactor="1.94" vaporized=""/>
    <tripinfo id="flow3.10" depart="48.40" departLane="end2_junction_0" departPos="4.10" departSpeed="0.00" departDelay="38.40" arrival="100.20" arrivalLane="junction_end1_0" arrivalPos="486.40" arrivalSpeed="33.30" duration="51.80" routeLength="977.73" waitingTime="0.00" waitingCount="0" stopTime="0.00" timeLoss="21.89" rerouteNo="0" devices="tripinfo_flow3.10" vType="vtypeauto" speedFactor="1.85" vaporized=""/>
    <tripinfo id="flow0.11" depart="48.50" departLane="end1_junction_0" departPos="4.10" departSpeed="0.00" departDelay="37.50" arrival="101.60" arrivalLane="junction_end4_0" arrivalPos="486.40" arrivalSpeed="33.32" duration="53.10" routeLength="977.73" waitingTime="0.00" waitingCount="0" stopTime="0.00" timeLoss="23.19" rerouteNo="0" devices="tripinfo_flow0.11" vType="vtypeauto" speedFactor="1.89" vaporized=""/>
    <tripinfo id="flow5.3" depart="17.40" departLane="end2_junction_0" departPos="4.10" departSpeed="0.00" departDelay="14.40" arrival="102.30" arrivalLane="junction_end3_2" arrivalPos="486.40" arrivalSpeed="33.27" duration="84.90" routeLength="993.21" waitingTime="8.20" waitingCount="1" stopTime="0.00" timeLoss="54.63" rerouteNo="0" devices="tripinfo_flow5.3" vType="vtypeauto" speedFactor="1.98" vaporized=""/>
    <tripinfo id="flow11.3" depart="18.60" departLane="end4_junction_0" departPos="4.10" departSpeed="0.00" departDelay="15.60" arrival="102.50" arrivalLane="junction_end1_2" arrivalPos="486.40" arrivalSpeed="33.25" duration="83.90" routeLength="993.21" waitingTime="9.30" waitingCount="1" stopTime="0.00" timeLoss="53.58" rerouteNo="0" devices="tripinfo_flow11.3" vType="vtypeauto" speedFactor="1.97" vaporized=""/>
    <tripinfo id="flow6.11" depart="50.50" departLane="end3_junction_0" departPos="4.10" departSpeed="0.00" departDelay="39.50" arrival="103.70" arrivalLane="junction_end2_0" arrivalPos="486.40" arrivalSpeed="33.24" duration="53.20" routeLength="977.73" waitingTime="0.00" waitingCount="0" stopTime="0.00" timeLoss="23.34" rerouteNo="0" devices="tripinfo_flow6.11" vType="vtypeauto" speedFactor="1.94" vaporized=""/>
    <tripinfo id="flow9.11" depart="52.60" departLane="end4_junction_0" departPos="4.10" departSpeed="0.00" departDelay="41.60" arrival="104.40" arrivalLane="junction_end3_0" arrivalPos="486.40" arrivalSpeed="33.21" duration="51.80" routeLength="977.73" waitingTime="0.00" waitingCount="0" stopTime="0.00" timeLoss="21.98" rerouteNo="0" devices="tripinfo_flow9.11" vType="vtypeauto" speedFactor="1.96" vaporized=""/>
    <tripinfo id="flow3.11" depart="51.90" departLane="end2_junction_0" departPos="4.10" departSpeed="0.00" departDelay="40.90" arrival="104.60" arrivalLane="junction_end1_0" arrivalPos="486.40" arrivalSpeed="33.21" duration="52.70" routeLength="977.73" waitingTime="0.00" waitingCount="0" stopTime="0.00" timeLoss="22.89" rerouteNo="0" devices="tripinfo_flow3.11" vType="vtypeauto" speedFactor="1.96" vaporized=""/>