<?xml version="1.0" encoding="UTF-8"?>

<!-- generated on 2024-05-02 16:52:07 by Eclipse SUMO GUI Version 1.19.0
<configuration xmlns:xsi="http://www.w3.org/2001/XMLSchema-instance" xsi:noNamespaceSchemaLocation="http://sumo.dlr.de/xsd/sumoConfiguration.xsd">

    <input>
        <net-file value="sim_cfg/intelligent_traffic.net.xml"/>
        <route-files value="sim_cfg/intelligent_traffic.rou.xml"/>
    </input>

    <output>
        <tripinfo-output value="sim_cfg/tripinfo.xml"/>
    </output>

    <time>
        <begin value="0"/>
        <end value="500"/>
        <step-length value="0.1"/>
    </time>

    <traci_server>
        <remote-port value="50941"/>
    </traci_server>

    <gui_only>
        <gui-settings-file value="sim_cfg/gui_settings.xml"/>
    </gui_only>

</configuration>
-->

<tripinfos xmlns:xsi="http://www.w3.org/2001/XMLSchema-instance" xsi:noNamespaceSchemaLocation="http://sumo.dlr.de/xsd/tripinfo_file.xsd">
    <tripinfo id="flow0.0" depart="0.00" departLane="end1_junction_0" departPos="4.10" departSpeed="0.00" departDelay="0.00" arrival="41.70" arrivalLane="junction_end4_0" arrivalPos="486.40" arrivalSpeed="43.94" duration="41.70" routeLength="977.73" waitingTime="0.00" waitingCount="0" stopTime="0.00" timeLoss="28.49" rerouteNo="0" devices="tripinfo_flow0.0" vType="auto" speedFactor="1.94" vaporized=""/>
    <tripinfo id="flow0.1" depart="5.10" departLane="end1_junction_0" departPos="4.10" departSpeed="0.00" departDelay="4.10" arrival="48.90" arrivalLane="junction_end4_0" arrivalPos="486.40" arrivalSpeed="44.13" duration="43.80" routeLength="977.73" waitingTime="0.00" waitingCount="0" stopTime="0.00" timeLoss="30.51" rerouteNo="0" devices="tripinfo_flow0.1" vType="auto" speedFactor="1.94" vaporized=""/>
    <tripinfo id="flow0.2" depart="10.10" departLane="end1_junction_0" departPos="4.10" departSpeed="0.00" departDelay="8.10" arrival="54.50" arrivalLane="junction_end4_0" arrivalPos="486.40" arrivalSpeed="44.16" duration="44.40" routeLength="977.73" waitingTime="0.00" waitingCount="0" stopTime="0.00" timeLoss="31.07" rerouteNo="0" devices="tripinfo_flow0.2" vType="auto" speedFactor="1.93" vaporized=""/>
    <tripinfo id="flow0.3" depart="15.10" departLane="end1_junction_0" departPos="4.10" departSpeed="0.00" departDelay="12.10" arrival="59.90" arrivalLane="junction_end4_0" arrivalPos="486.40" arrivalSpeed="44.00" duration="44.80" routeLength="977.73" waitingTime="0.00" waitingCount="0" stopTime="0.00" timeLoss="31.53" rerouteNo="0" devices="tripinfo_flow0.3" vType="auto" speedFactor="1.94" vaporized=""/>
    <tripinfo id="flow0.4" depart="20.10" departLane="end1_junction_0" departPos="4.10" departSpeed="0.00" departDelay="16.10" arrival="64.20" arrivalLane="junction_end4_0" arrivalPos="486.40" arrivalSpeed="44.72" duration="44.10" routeLength="977.73" waitingTime="0.00" waitingCount="0" stopTime="0.00" timeLoss="30.02" rerouteNo="0" devices="tripinfo_flow0.4" vType="auto" speedFactor="1.83" vaporized=""/>
    <tripinfo id="flow1.0" depart="2.40" departLane="end1_junction_0" departPos="4.10" departSpeed="0.00" departDelay="2.40" arrival="66.40" arrivalLane="junction_end3_1" arrivalPos="486.40" arrivalSpeed="43.49" duration="64.00" routeLength="995.90" waitingTime="15.80" waitingCount="1" stopTime="0.00" timeLoss="50.36" rerouteNo="0" devices="tripinfo_flow1.0" vType="auto" speedFactor="1.83" vaporized=""/>
    <tripinfo id="flow1.3" depart="17.50" departLane="end1_junction_0" departPos="4.10" departSpeed="0.00" departDelay="14.50" arrival="68.00" arrivalLane="junction_end3_2" arrivalPos="486.40" arrivalSpeed="44.45" duration="50.50" routeLength="995.90" waitingTime="0.00" waitingCount="0" stopTime="0.00" timeLoss="37.89" rerouteNo="0" devices="tripinfo_flow1.3" vType="auto" speedFactor="1.98" vaporized=""/>
    <tripinfo id="flow1.4" depart="22.60" departLane="end1_junction_0" departPos="4.10" departSpeed="0.00" departDelay="18.60" arrival="69.00" arrivalLane="junction_end3_2" arrivalPos="486.40" arrivalSpeed="44.35" duration="46.40" routeLength="995.90" waitingTime="0.00" waitingCount="0" stopTime="0.00" timeLoss="33.09" rerouteNo="0" devices="tripinfo_flow1.4" vType="auto" speedFactor="1.87" vaporized=""/>
    <tripinfo id="flow0.5" depart="25.20" departLane="end1_junction_0" departPos="4.10" departSpeed="0.00" departDelay="20.20" arrival="69.10" arrivalLane="junction_end4_0" arrivalPos="486.40" arrivalSpeed="44.92" duration="43.90" routeLength="977.73" waitingTime="0.00" waitingCount="0" stopTime="0.00" timeLoss="30.74" rerouteNo="0" devices="tripinfo_flow0.5" vType="auto" speedFactor="1.95" vaporized=""/>
    <tripinfo id="flow1.5" depart="27.60" departLane="end1_junction_0" departPos="4.10" departSpeed="0.00" departDelay="22.60" arrival="70.00" arrivalLane="junction_end3_2" arrivalPos="486.40" arrivalSpeed="45.23" duration="42.40" routeLength="995.90" waitingTime="0.00" waitingCount="0" stopTime="0.00" timeLoss="29.50" rerouteNo="0" devices="tripinfo_flow1.5" vType="auto" speedFactor="1.93" vaporized=""/>
    <tripinfo id="flow0.6" depart="30.20" departLane="end1_junction_0" departPos="4.10" departSpeed="0.00" departDelay="24.20" arrival="73.20" arrivalLane="junction_end4_0" arrivalPos="486.40" arrivalSpeed="44.54" duration="43.00" routeLength="977.73" waitingTime="0.00" waitingCount="0" stopTime="0.00" timeLoss="29.99" rerouteNo="0" devices="tripinfo_flow0.6" vType="auto" speedFactor="1.97" vaporized=""/>
    <tripinfo id="flow1.6" depart="32.60" departLane="end1_junction_0" departPos="4.10" departSpeed="0.00" departDelay="26.60" arrival="76.80" arrivalLane="junction_end3_2" arrivalPos="486.40" arrivalSpeed="40.69" duration="44.20" routeLength="995.90" waitingTime="0.00" waitingCount="0" stopTime="0.00" timeLoss="31.05" rerouteNo="0" devices="tripinfo_flow1.6" vType="auto" speedFactor="1.90" vaporized=""/>
    <tripinfo id="flow0.7" depart="35.10" departLane="end1_junction_0" departPos="4.10" departSpeed="0.00" departDelay="28.10" arrival="78.20" arrivalLane="junction_end4_0" arrivalPos="486.40" arrivalSpeed="44.46" duration="43.10" routeLength="977.73" waitingTime="0.00" waitingCount="0" stopTime="0.00" timeLoss="30.31" rerouteNo="0" devices="tripinfo_flow0.7" vType="auto" speedFactor="2.00" vaporized=""/>
    <tripinfo id="flow1.7" depart="37.50" departLane="end1_junction_0" departPos="4.10" departSpeed="0.00" departDelay="30.50" arrival="80.00" arrivalLane="junction_end3_2" arrivalPos="486.40" arrivalSpeed="46.83" duration="42.50" routeLength="995.90" waitingTime="0.00" waitingCount="0" stopTime="0.00" timeLoss="29.39" rerouteNo="0" devices="tripinfo_flow1.7" vType="auto" speedFactor="1.90" vaporized=""/>
    <tripinfo id="flow0.8" depart="39.90" departLane="end1_junction_0" departPos="4.10" departSpeed="0.00" departDelay="31.90" arrival="83.80" arrivalLane="junction_end4_0" arrivalPos="486.40" arrivalSpeed="44.22" duration="43.90" routeLength="977.73" waitingTime="0.00" waitingCount="0" stopTime="0.00" timeLoss="30.09" rerouteNo="0" devices="tripinfo_flow0.8" vType="auto" speedFactor="1.85" vaporized=""/>
    <tripinfo id="flow1.1" depart="7.50" departLane="end1_junction_0" departPos="4.10" departSpeed="0.00" departDelay="6.50" arrival="84.00" arrivalLane="junction_end3_0" arrivalPos="486.40" arrivalSpeed="13.88" duration="76.50" routeLength="995.90" waitingTime="6.60" waitingCount="1" stopTime="0.00" timeLoss="32.87" rerouteNo="0" devices="tripinfo_flow1.1" vType="auto" speedFactor="0.35" vaporized=""/>
    <tripinfo id="flow1.2" depart="12.50" departLane="end1_junction_0" departPos="4.10" departSpeed="0.00" departDelay="10.50" arrival="84.60" arrivalLane="junction_end3_0" arrivalPos="486.40" arrivalSpeed="13.95" duration="72.10" routeLength="995.90" waitingTime="1.50" waitingCount="1" stopTime="0.00" timeLoss="28.21" rerouteNo="0" devices="tripinfo_flow1.2" vType="auto" speedFactor="0.35" vaporized=""/>
    <tripinfo id="flow1.8" depart="42.30" departLane="end1_junction_0" departPos="4.10" departSpeed="0.00" departDelay="34.30" arrival="86.70" arrivalLane="junction_end3_1" arrivalPos="486.40" arrivalSpeed="30.07" duration="44.40" routeLength="995.90" waitingTime="0.00" waitingCount="0" stopTime="0.00" timeLoss="30.97" rerouteNo="0" devices="tripinfo_flow1.8" vType="auto" speedFactor="1.85" vaporized=""/>
    <tripinfo id="flow0.9" depart="44.80" departLane="end1_junction_0" departPos="4.10" departSpeed="0.00" departDelay="35.80" arrival="88.50" arrivalLane="junction_end4_0" arrivalPos="486.40" arrivalSpeed="44.86" duration="43.70" routeLength="977.73" waitingTime="0.00" waitingCount="0" stopTime="0.00" timeLoss="30.23" rerouteNo="0" devices="tripinfo_flow0.9" vType="auto" speedFactor="1.90" vaporized=""/>
    <tripinfo id="flow1.9" depart="47.20" departLane="end1_junction_0" departPos="4.10" departSpeed="0.00" departDelay="38.20" arrival="89.90" arrivalLane="junction_end3_2" arrivalPos="486.40" arrivalSpeed="47.37" duration="42.70" routeLength="995.90" waitingTime="0.00" waitingCount="0" stopTime="0.00" timeLoss="30.01" rerouteNo="0" devices="tripinfo_flow1.9" vType="auto" speedFactor="1.97" vaporized=""/>
    <tripinfo id="flow0.10" depart="49.70" departLane="end1_junction_0" departPos="4.10" departSpeed="0.00" departDelay="39.70" arrival="93.40" arrivalLane="junction_end4_0" arrivalPos="486.40" arrivalSpeed="44.52" duration="43.70" routeLength="977.73" waitingTime="0.00" waitingCount="0" stopTime="0.00" timeLoss="30.46" rerouteNo="0" devices="tripinfo_flow0.10" vType="auto" speedFactor="1.94" vaporized=""/>
    <tripinfo id="flow1.10" depart="52.10" departLane="end1_junction_0" departPos="4.10" departSpeed="0.00" departDelay="42.10" arrival="95.60" arrivalLane="junction_end3_1" arrivalPos="486.40" arrivalSpeed="46.11" duration="43.50" routeLength="995.90" waitingTime="0.00" waitingCount="0" stopTime="0.00" timeLoss="30.25" rerouteNo="0" devices="tripinfo_flow1.10" vType="auto" speedFactor="1.88" vaporized=""/>
    <tripinfo id="flow0.11" depart="54.80" departLane="end1_junction_0" departPos="4.10" departSpeed="0.00" departDelay="43.80" arrival="98.80" arrivalLane="junction_end4_0" arrivalPos="486.40" arrivalSpeed="44.38" duration="44.00" routeLength="977.73" waitingTime="0.00" waitingCount="0" stopTime="0.00" timeLoss="30.52" rerouteNo="0" devices="tripinfo_flow0.11" vType="auto" speedFactor="1.91" vaporized=""/>
    <tripinfo id="flow1.11" depart="57.20" departLane="end1_junction_0" departPos="4.10" departSpeed="0.00" departDelay="46.20" arrival="100.30" arrivalLane="junction_end3_2" arrivalPos="486.40" arrivalSpeed="47.53" duration="43.10" routeLength="995.90" waitingTime="0.00" waitingCount="0" stopTime="0.00" timeLoss="30.48" rerouteNo="0" devices="tripinfo_flow1.11" vType="auto" speedFactor="1.97" vaporized=""/>
    <tripinfo id="flow0.12" depart="59.70" departLane="end1_junction_0" departPos="4.10" departSpeed="0.00" departDelay="47.70" arrival="103.70" arrivalLane="junction_end4_0" arrivalPos="486.40" arrivalSpeed="44.52" duration="44.00" routeLength="977.73" waitingTime="0.00" waitingCount="0" stopTime="0.00" timeLoss="30.87" rerouteNo="0" devices="tripinfo_flow0.12" vType="auto" speedFactor="1.96" vaporized=""/>
    <tripinfo id="flow2.11" depart="57.30" departLane="end1_junction_0" departPos="4.10" departSpeed="0.00" departDelay="46.30" arrival="104.60" arrivalLane="junction_end2_2" arrivalPos="486.40" arrivalSpeed="14.11" duration="47.30" routeLength="993.21" waitingTime="7.90" waitingCount="2" stopTime="0.00" timeLoss="35.09" rerouteNo="0" devices="tripinfo_flow2.11" vType="auto" speedFactor="1.35" vaporized="teleport"/>
</tripinfos>
