<?xml version="1.0" encoding="UTF-8"?>

<!-- generated on 2024-04-10 14:33:54 by Eclipse SUMO GUI Version 1.19.0
<configuration xmlns:xsi="http://www.w3.org/2001/XMLSchema-instance" xsi:noNamespaceSchemaLocation="http://sumo.dlr.de/xsd/sumoConfiguration.xsd">

    <input>
        <net-file value="sim_cfg/intelligent_traffic.net.xml"/>
        <route-files value="sim_cfg/intelligent_traffic.rou.xml"/>
    </input>

    <output>
        <tripinfo-output value="sim_cfg/tripinfo.xml"/>
    </output>

    <time>
        <begin value="0"/>
        <end value="500"/>
        <step-length value="0.1"/>
    </time>

    <traci_server>
        <remote-port value="49451"/>
    </traci_server>

    <gui_only>
        <gui-settings-file value="sim_cfg/gui_settings.xml"/>
    </gui_only>

</configuration>
-->

<tripinfos xmlns:xsi="http://www.w3.org/2001/XMLSchema-instance" xsi:noNamespaceSchemaLocation="http://sumo.dlr.de/xsd/tripinfo_file.xsd">
    <tripinfo id="flow3.0" depart="0.00" departLane="end2_junction_0" departPos="4.10" departSpeed="0.00" departDelay="0.00" arrival="37.20" arrivalLane="junction_end1_0" arrivalPos="486.40" arrivalSpeed="35.95" duration="37.20" routeLength="977.73" waitingTime="0.00" waitingCount="0" stopTime="0.00" timeLoss="9.01" rerouteNo="0" devices="tripinfo_flow3.0" vType="auto" speedFactor="1.08" vaporized=""/>
    <tripinfo id="flow0.0" depart="0.00" departLane="end1_junction_0" departPos="4.10" departSpeed="0.00" departDelay="0.00" arrival="37.50" arrivalLane="junction_end4_0" arrivalPos="486.40" arrivalSpeed="35.87" duration="37.50" routeLength="977.73" waitingTime="0.00" waitingCount="0" stopTime="0.00" timeLoss="9.25" rerouteNo="0" devices="tripinfo_flow0.0" vType="auto" speedFactor="1.06" vaporized=""/>
    <tripinfo id="flow6.0" depart="0.00" departLane="end3_junction_0" departPos="4.10" departSpeed="0.00" departDelay="0.00" arrival="37.80" arrivalLane="junction_end2_0" arrivalPos="486.40" arrivalSpeed="35.84" duration="37.80" routeLength="977.73" waitingTime="0.00" waitingCount="0" stopTime="0.00" timeLoss="9.44" rerouteNo="0" devices="tripinfo_flow6.0" vType="auto" speedFactor="1.03" vaporized=""/>
    <tripinfo id="flow9.0" depart="0.00" departLane="end4_junction_0" departPos="4.10" departSpeed="0.00" departDelay="0.00" arrival="37.80" arrivalLane="junction_end3_0" arrivalPos="486.40" arrivalSpeed="35.85" duration="37.80" routeLength="977.73" waitingTime="0.00" waitingCount="0" stopTime="0.00" timeLoss="9.58" rerouteNo="0" devices="tripinfo_flow9.0" vType="auto" speedFactor="1.05" vaporized=""/>
    <tripinfo id="flow9.1" depart="10.00" departLane="end4_junction_0" departPos="4.10" departSpeed="0.00" departDelay="0.00" arrival="47.00" arrivalLane="junction_end3_0" arrivalPos="486.40" arrivalSpeed="35.94" duration="37.00" routeLength="977.73" waitingTime="0.00" waitingCount="0" stopTime="0.00" timeLoss="8.81" rerouteNo="0" devices="tripinfo_flow9.1" vType="auto" speedFactor="1.12" vaporized=""/>
    <tripinfo id="flow3.1" depart="10.00" departLane="end2_junction_0" departPos="4.10" departSpeed="0.00" departDelay="0.00" arrival="47.40" arrivalLane="junction_end1_0" arrivalPos="486.40" arrivalSpeed="35.81" duration="37.40" routeLength="977.73" waitingTime="0.00" waitingCount="0" stopTime="0.00" timeLoss="9.16" rerouteNo="0" devices="tripinfo_flow3.1" vType="auto" speedFactor="1.09" vaporized=""/>
    <tripinfo id="flow6.1" depart="10.00" departLane="end3_junction_0" departPos="4.10" departSpeed="0.00" departDelay="0.00" arrival="48.40" arrivalLane="junction_end2_0" arrivalPos="486.40" arrivalSpeed="35.89" duration="38.40" routeLength="977.73" waitingTime="0.00" waitingCount="0" stopTime="0.00" timeLoss="10.05" rerouteNo="0" devices="tripinfo_flow6.1" vType="auto" speedFactor="1.03" vaporized=""/>
    <tripinfo id="flow0.1" depart="10.00" departLane="end1_junction_0" departPos="4.10" departSpeed="0.00" departDelay="0.00" arrival="49.30" arrivalLane="junction_end4_0" arrivalPos="486.40" arrivalSpeed="35.22" duration="39.30" routeLength="977.73" waitingTime="0.00" waitingCount="0" stopTime="0.00" timeLoss="10.39" rerouteNo="0" devices="tripinfo_flow0.1" vType="auto" speedFactor="0.89" vaporized=""/>
    <tripinfo id="flow9.2" depart="20.00" departLane="end4_junction_0" departPos="4.10" departSpeed="0.00" departDelay="0.00" arrival="57.50" arrivalLane="junction_end3_0" arrivalPos="486.40" arrivalSpeed="35.78" duration="37.50" routeLength="977.73" waitingTime="0.00" waitingCount="0" stopTime="0.00" timeLoss="9.22" rerouteNo="0" devices="tripinfo_flow9.2" vType="auto" speedFactor="1.02" vaporized=""/>
    <tripinfo id="flow3.2" depart="20.00" departLane="end2_junction_0" departPos="4.10" departSpeed="0.00" departDelay="0.00" arrival="57.90" arrivalLane="junction_end1_0" arrivalPos="486.40" arrivalSpeed="35.98" duration="37.90" routeLength="977.73" waitingTime="0.00" waitingCount="0" stopTime="0.00" timeLoss="9.46" rerouteNo="0" devices="tripinfo_flow3.2" vType="auto" speedFactor="0.94" vaporized=""/>
    <tripinfo id="flow1.0" depart="1.50" departLane="end1_junction_0" departPos="4.10" departSpeed="0.00" departDelay="1.50" arrival="58.80" arrivalLane="junction_end3_1" arrivalPos="486.40" arrivalSpeed="35.81" duration="57.30" routeLength="995.90" waitingTime="18.80" waitingCount="1" stopTime="0.00" timeLoss="29.62" rerouteNo="0" devices="tripinfo_flow1.0" vType="auto" speedFactor="0.94" vaporized=""/>
    <tripinfo id="flow0.2" depart="20.00" departLane="end1_junction_0" departPos="4.10" departSpeed="0.00" departDelay="0.00" arrival="58.90" arrivalLane="junction_end4_0" arrivalPos="486.40" arrivalSpeed="36.00" duration="38.90" routeLength="977.73" waitingTime="0.00" waitingCount="0" stopTime="0.00" timeLoss="10.53" rerouteNo="0" devices="tripinfo_flow0.2" vType="auto" speedFactor="0.99" vaporized=""/>
    <tripinfo id="flow6.2" depart="20.00" departLane="end3_junction_0" departPos="4.10" departSpeed="0.00" departDelay="0.00" arrival="58.90" arrivalLane="junction_end2_0" arrivalPos="486.40" arrivalSpeed="35.95" duration="38.90" routeLength="977.73" waitingTime="0.00" waitingCount="0" stopTime="0.00" timeLoss="10.46" rerouteNo="0" devices="tripinfo_flow6.2" vType="auto" speedFactor="0.94" vaporized=""/>
    <tripinfo id="flow7.0" depart="1.50" departLane="end3_junction_0" departPos="4.10" departSpeed="0.00" departDelay="1.50" arrival="59.50" arrivalLane="junction_end1_1" arrivalPos="486.40" arrivalSpeed="33.14" duration="58.00" routeLength="995.90" waitingTime="18.00" waitingCount="1" stopTime="0.00" timeLoss="28.02" rerouteNo="0" devices="tripinfo_flow7.0" vType="auto" speedFactor="0.83" vaporized=""/>
    <tripinfo id="flow1.1" depart="11.50" departLane="end1_junction_0" departPos="4.10" departSpeed="0.00" departDelay="1.50" arrival="60.00" arrivalLane="junction_end3_1" arrivalPos="486.40" arrivalSpeed="35.76" duration="48.50" routeLength="995.90" waitingTime="4.60" waitingCount="1" stopTime="0.00" timeLoss="20.76" rerouteNo="0" devices="tripinfo_flow1.1" vType="auto" speedFactor="0.94" vaporized=""/>
    <tripinfo id="flow7.1" depart="11.50" departLane="end3_junction_0" departPos="4.10" departSpeed="0.00" departDelay="1.50" arrival="60.60" arrivalLane="junction_end1_1" arrivalPos="486.40" arrivalSpeed="35.86" duration="49.10" routeLength="995.90" waitingTime="4.40" waitingCount="1" stopTime="0.00" timeLoss="21.41" rerouteNo="0" devices="tripinfo_flow7.1" vType="auto" speedFactor="1.05" vaporized=""/>
    <tripinfo id="flow1.2" depart="21.50" departLane="end1_junction_0" departPos="4.10" departSpeed="0.00" departDelay="1.50" arrival="61.10" arrivalLane="junction_end3_1" arrivalPos="486.40" arrivalSpeed="35.96" duration="39.60" routeLength="995.90" waitingTime="0.00" waitingCount="0" stopTime="0.00" timeLoss="11.88" rerouteNo="0" devices="tripinfo_flow1.2" vType="auto" speedFactor="0.93" vaporized=""/>
    <tripinfo id="flow7.2" depart="21.50" departLane="end3_junction_0" departPos="4.10" departSpeed="0.00" departDelay="1.50" arrival="61.70" arrivalLane="junction_end1_1" arrivalPos="486.40" arrivalSpeed="35.92" duration="40.20" routeLength="995.90" waitingTime="0.00" waitingCount="0" stopTime="0.00" timeLoss="12.48" rerouteNo="0" devices="tripinfo_flow7.2" vType="auto" speedFactor="1.16" vaporized=""/>
    <tripinfo id="flow0.3" depart="30.00" departLane="end1_junction_0" departPos="4.10" departSpeed="0.00" departDelay="0.00" arrival="67.40" arrivalLane="junction_end4_0" arrivalPos="486.40" arrivalSpeed="35.89" duration="37.40" routeLength="977.73" waitingTime="0.00" waitingCount="0" stopTime="0.00" timeLoss="9.09" rerouteNo="0" devices="tripinfo_flow0.3" vType="auto" speedFactor="1.01" vaporized=""/>
    <tripinfo id="flow9.3" depart="30.00" departLane="end4_junction_0" departPos="4.10" departSpeed="0.00" departDelay="0.00" arrival="67.90" arrivalLane="junction_end3_0" arrivalPos="486.40" arrivalSpeed="35.78" duration="37.90" routeLength="977.73" waitingTime="0.00" waitingCount="0" stopTime="0.00" timeLoss="9.56" rerouteNo="0" devices="tripinfo_flow9.3" vType="auto" speedFactor="0.95" vaporized=""/>
    <tripinfo id="flow6.3" depart="30.00" departLane="end3_junction_0" departPos="4.10" departSpeed="0.00" departDelay="0.00" arrival="68.60" arrivalLane="junction_end2_0" arrivalPos="486.40" arrivalSpeed="34.83" duration="38.60" routeLength="977.73" waitingTime="0.00" waitingCount="0" stopTime="0.00" timeLoss="9.23" rerouteNo="0" devices="tripinfo_flow6.3" vType="auto" speedFactor="0.87" vaporized=""/>
    <tripinfo id="flow3.3" depart="30.00" departLane="end2_junction_0" departPos="4.10" departSpeed="0.00" departDelay="0.00" arrival="69.70" arrivalLane="junction_end1_0" arrivalPos="486.40" arrivalSpeed="32.86" duration="39.70" routeLength="977.73" waitingTime="0.00" waitingCount="0" stopTime="0.00" timeLoss="8.67" rerouteNo="0" devices="tripinfo_flow3.3" vType="auto" speedFactor="0.83" vaporized=""/>
    <tripinfo id="flow2.0" depart="1.60" departLane="end1_junction_0" departPos="4.10" departSpeed="0.00" departDelay="1.60" arrival="70.50" arrivalLane="junction_end2_2" arrivalPos="486.40" arrivalSpeed="35.93" duration="68.90" routeLength="993.21" waitingTime="28.10" waitingCount="1" stopTime="0.00" timeLoss="39.69" rerouteNo="0" devices="tripinfo_flow2.0" vType="auto" speedFactor="1.01" vaporized=""/>
    <tripinfo id="flow2.1" depart="11.60" departLane="end1_junction_0" departPos="4.10" departSpeed="0.00" departDelay="1.60" arrival="72.80" arrivalLane="junction_end2_2" arrivalPos="486.40" arrivalSpeed="34.10" duration="61.20" routeLength="993.21" waitingTime="13.90" waitingCount="1" stopTime="0.00" timeLoss="30.14" rerouteNo="0" devices="tripinfo_flow2.1" vType="auto" speedFactor="0.86" vaporized=""/>
    <tripinfo id="flow2.2" depart="21.60" departLane="end1_junction_0" departPos="4.10" departSpeed="0.00" departDelay="1.60" arrival="74.00" arrivalLane="junction_end2_2" arrivalPos="486.40" arrivalSpeed="35.09" duration="52.40" routeLength="993.21" waitingTime="4.40" waitingCount="1" stopTime="0.00" timeLoss="22.08" rerouteNo="0" devices="tripinfo_flow2.2" vType="auto" speedFactor="0.88" vaporized=""/>
    <tripinfo id="flow2.3" depart="31.60" departLane="end1_junction_0" departPos="4.10" departSpeed="0.00" departDelay="1.60" arrival="75.50" arrivalLane="junction_end2_2" arrivalPos="486.40" arrivalSpeed="35.39" duration="43.90" routeLength="993.21" waitingTime="0.00" waitingCount="0" stopTime="0.00" timeLoss="13.95" rerouteNo="0" devices="tripinfo_flow2.3" vType="auto" speedFactor="0.89" vaporized=""/>
    <tripinfo id="flow3.4" depart="40.00" departLane="end2_junction_0" departPos="4.10" departSpeed="0.00" departDelay="0.00" arrival="77.30" arrivalLane="junction_end1_0" arrivalPos="486.40" arrivalSpeed="35.85" duration="37.30" routeLength="977.73" waitingTime="0.00" waitingCount="0" stopTime="0.00" timeLoss="9.14" rerouteNo="0" devices="tripinfo_flow3.4" vType="auto" speedFactor="1.15" vaporized=""/>
    <tripinfo id="flow9.4" depart="40.00" departLane="end4_junction_0" departPos="4.10" departSpeed="0.00" departDelay="0.00" arrival="77.70" arrivalLane="junction_end3_0" arrivalPos="486.40" arrivalSpeed="35.79" duration="37.70" routeLength="977.73" waitingTime="0.00" waitingCount="0" stopTime="0.00" timeLoss="9.38" rerouteNo="0" devices="tripinfo_flow9.4" vType="auto" speedFactor="0.99" vaporized=""/>
    <tripinfo id="flow0.4" depart="40.00" departLane="end1_junction_0" departPos="4.10" departSpeed="0.00" departDelay="0.00" arrival="78.10" arrivalLane="junction_end4_0" arrivalPos="486.40" arrivalSpeed="35.96" duration="38.10" routeLength="977.73" waitingTime="0.00" waitingCount="0" stopTime="0.00" timeLoss="9.91" rerouteNo="0" devices="tripinfo_flow0.4" vType="auto" speedFactor="1.13" vaporized=""/>
    <tripinfo id="flow6.4" depart="40.00" departLane="end3_junction_0" departPos="4.10" departSpeed="0.00" departDelay="0.00" arrival="78.70" arrivalLane="junction_end2_0" arrivalPos="486.40" arrivalSpeed="36.00" duration="38.70" routeLength="977.73" waitingTime="0.00" waitingCount="0" stopTime="0.00" timeLoss="10.37" rerouteNo="0" devices="tripinfo_flow6.4" vType="auto" speedFactor="1.01" vaporized=""/>
    <tripinfo id="flow3.5" depart="50.00" departLane="end2_junction_0" departPos="4.10" departSpeed="0.00" departDelay="0.00" arrival="87.10" arrivalLane="junction_end1_0" arrivalPos="486.40" arrivalSpeed="35.99" duration="37.10" routeLength="977.73" waitingTime="0.00" waitingCount="0" stopTime="0.00" timeLoss="8.94" rerouteNo="0" devices="tripinfo_flow3.5" vType="auto" speedFactor="1.10" vaporized=""/>
    <tripinfo id="flow9.5" depart="50.00" departLane="end4_junction_0" departPos="4.10" departSpeed="0.00" departDelay="0.00" arrival="87.50" arrivalLane="junction_end3_0" arrivalPos="486.40" arrivalSpeed="35.98" duration="37.50" routeLength="977.73" waitingTime="0.00" waitingCount="0" stopTime="0.00" timeLoss="9.15" rerouteNo="0" devices="tripinfo_flow9.5" vType="auto" speedFactor="0.96" vaporized=""/>
    <tripinfo id="flow0.5" depart="50.00" departLane="end1_junction_0" departPos="4.10" departSpeed="0.00" departDelay="0.00" arrival="88.70" arrivalLane="junction_end4_0" arrivalPos="486.40" arrivalSpeed="35.90" duration="38.70" routeLength="977.73" waitingTime="0.00" waitingCount="0" stopTime="0.00" timeLoss="10.44" rerouteNo="0" devices="tripinfo_flow0.5" vType="auto" speedFactor="1.02" vaporized=""/>
    <tripinfo id="flow6.5" depart="50.00" departLane="end3_junction_0" departPos="4.10" departSpeed="0.00" departDelay="0.00" arrival="88.80" arrivalLane="junction_end2_0" arrivalPos="486.40" arrivalSpeed="35.75" duration="38.80" routeLength="977.73" waitingTime="0.00" waitingCount="0" stopTime="0.00" timeLoss="10.41" rerouteNo="0" devices="tripinfo_flow6.5" vType="auto" speedFactor="0.90" vaporized=""/>
    <tripinfo id="flow3.6" depart="60.00" departLane="end2_junction_0" departPos="4.10" departSpeed="0.00" departDelay="0.00" arrival="97.30" arrivalLane="junction_end1_0" arrivalPos="486.40" arrivalSpeed="35.78" duration="37.30" routeLength="977.73" waitingTime="0.00" waitingCount="0" stopTime="0.00" timeLoss="9.04" rerouteNo="0" devices="tripinfo_flow3.6" vType="auto" speedFactor="1.09" vaporized=""/>
    <tripinfo id="flow9.6" depart="60.00" departLane="end4_junction_0" departPos="4.10" departSpeed="0.00" departDelay="0.00" arrival="98.40" arrivalLane="junction_end3_0" arrivalPos="486.40" arrivalSpeed="34.93" duration="38.40" routeLength="977.73" waitingTime="0.00" waitingCount="0" stopTime="0.00" timeLoss="9.17" rerouteNo="0" devices="tripinfo_flow9.6" vType="auto" speedFactor="0.88" vaporized=""/>
    <tripinfo id="flow0.6" depart="60.00" departLane="end1_junction_0" departPos="4.10" departSpeed="0.00" departDelay="0.00" arrival="98.60" arrivalLane="junction_end4_0" arrivalPos="486.40" arrivalSpeed="35.95" duration="38.60" routeLength="977.73" waitingTime="0.00" waitingCount="0" stopTime="0.00" timeLoss="10.36" rerouteNo="0" devices="tripinfo_flow0.6" vType="auto" speedFactor="1.09" vaporized=""/>
    <tripinfo id="flow6.6" depart="60.00" departLane="end3_junction_0" departPos="4.10" departSpeed="0.00" departDelay="0.00" arrival="99.00" arrivalLane="junction_end2_0" arrivalPos="486.40" arrivalSpeed="35.97" duration="39.00" routeLength="977.73" waitingTime="0.00" waitingCount="0" stopTime="0.00" timeLoss="10.63" rerouteNo="0" devices="tripinfo_flow6.6" vType="auto" speedFactor="1.00" vaporized=""/>
    <tripinfo id="flow3.7" depart="70.00" departLane="end2_junction_0" departPos="4.10" departSpeed="0.00" departDelay="0.00" arrival="107.40" arrivalLane="junction_end1_0" arrivalPos="486.40" arrivalSpeed="35.90" duration="37.40" routeLength="977.73" waitingTime="0.00" waitingCount="0" stopTime="0.00" timeLoss="9.02" rerouteNo="0" devices="tripinfo_flow3.7" vType="auto" speedFactor="1.02" vaporized=""/>
    <tripinfo id="flow9.7" depart="70.00" departLane="end4_junction_0" departPos="4.10" departSpeed="0.00" departDelay="0.00" arrival="107.80" arrivalLane="junction_end3_0" arrivalPos="486.40" arrivalSpeed="35.82" duration="37.80" routeLength="977.73" waitingTime="0.00" waitingCount="0" stopTime="0.00" timeLoss="9.45" rerouteNo="0" devices="tripinfo_flow9.7" vType="auto" speedFactor="1.00" vaporized=""/>
    <tripinfo id="flow6.7" depart="70.00" departLane="end3_junction_0" departPos="4.10" departSpeed="0.00" departDelay="0.00" arrival="108.60" arrivalLane="junction_end2_0" arrivalPos="486.40" arrivalSpeed="35.84" duration="38.60" routeLength="977.73" waitingTime="0.00" waitingCount="0" stopTime="0.00" timeLoss="10.47" rerouteNo="0" devices="tripinfo_flow6.7" vType="auto" speedFactor="1.10" vaporized=""/>
    <tripinfo id="flow1.3" depart="31.50" departLane="end1_junction_0" departPos="4.10" departSpeed="0.00" departDelay="1.50" arrival="108.70" arrivalLane="junction_end3_1" arrivalPos="486.40" arrivalSpeed="35.96" duration="77.20" routeLength="995.90" waitingTime="37.50" waitingCount="1" stopTime="0.00" timeLoss="49.52" rerouteNo="0" devices="tripinfo_flow1.3" vType="auto" speedFactor="0.97" vaporized=""/>
    <tripinfo id="flow7.3" depart="31.50" departLane="end3_junction_0" departPos="4.10" departSpeed="0.00" departDelay="1.50" arrival="108.90" arrivalLane="junction_end1_1" arrivalPos="486.40" arrivalSpeed="35.79" duration="77.40" routeLength="995.90" waitingTime="38.80" waitingCount="1" stopTime="0.00" timeLoss="49.73" rerouteNo="0" devices="tripinfo_flow7.3" vType="auto" speedFactor="0.92" vaporized=""/>
    <tripinfo id="flow1.4" depart="41.50" departLane="end1_junction_0" departPos="4.10" departSpeed="0.00" departDelay="1.50" arrival="109.90" arrivalLane="junction_end3_1" arrivalPos="486.40" arrivalSpeed="35.78" duration="68.40" routeLength="995.90" waitingTime="24.60" waitingCount="1" stopTime="0.00" timeLoss="40.64" rerouteNo="0" devices="tripinfo_flow1.4" vType="auto" speedFactor="0.93" vaporized=""/>
    <tripinfo id="flow7.4" depart="41.50" departLane="end3_junction_0" departPos="4.10" departSpeed="0.00" departDelay="1.50" arrival="110.10" arrivalLane="junction_end1_1" arrivalPos="486.40" arrivalSpeed="35.97" duration="68.60" routeLength="995.90" waitingTime="24.40" waitingCount="1" stopTime="0.00" timeLoss="40.86" rerouteNo="0" devices="tripinfo_flow7.4" vType="auto" speedFactor="1.17" vaporized=""/>
    <tripinfo id="flow0.7" depart="70.00" departLane="end1_junction_0" departPos="4.10" departSpeed="0.00" departDelay="0.00" arrival="110.20" arrivalLane="junction_end4_0" arrivalPos="486.40" arrivalSpeed="33.88" duration="40.20" routeLength="977.73" waitingTime="0.00" waitingCount="0" stopTime="0.00" timeLoss="10.14" rerouteNo="0" devices="tripinfo_flow0.7" vType="auto" speedFactor="0.85" vaporized=""/>
    <tripinfo id="flow1.5" depart="51.50" departLane="end1_junction_0" departPos="4.10" departSpeed="0.00" departDelay="1.50" arrival="111.00" arrivalLane="junction_end3_1" arrivalPos="486.40" arrivalSpeed="35.84" duration="59.50" routeLength="995.90" waitingTime="15.00" waitingCount="1" stopTime="0.00" timeLoss="31.76" rerouteNo="0" devices="tripinfo_flow1.5" vType="auto" speedFactor="0.97" vaporized=""/>
    <tripinfo id="flow7.5" depart="51.50" departLane="end3_junction_0" departPos="4.10" departSpeed="0.00" departDelay="1.50" arrival="111.20" arrivalLane="junction_end1_1" arrivalPos="486.40" arrivalSpeed="35.87" duration="59.70" routeLength="995.90" waitingTime="14.80" waitingCount="1" stopTime="0.00" timeLoss="31.98" rerouteNo="0" devices="tripinfo_flow7.5" vType="auto" speedFactor="1.03" vaporized=""/>
    <tripinfo id="flow1.6" depart="61.50" departLane="end1_junction_0" departPos="4.10" departSpeed="0.00" departDelay="1.50" arrival="112.10" arrivalLane="junction_end3_1" arrivalPos="486.40" arrivalSpeed="35.94" duration="50.60" routeLength="995.90" waitingTime="5.60" waitingCount="1" stopTime="0.00" timeLoss="22.87" rerouteNo="0" devices="tripinfo_flow1.6" vType="auto" speedFactor="1.04" vaporized=""/>
    <tripinfo id="flow7.6" depart="61.50" departLane="end3_junction_0" departPos="4.10" departSpeed="0.00" departDelay="1.50" arrival="112.30" arrivalLane="junction_end1_1" arrivalPos="486.40" arrivalSpeed="35.91" duration="50.80" routeLength="995.90" waitingTime="5.40" waitingCount="1" stopTime="0.00" timeLoss="23.09" rerouteNo="0" devices="tripinfo_flow7.6" vType="auto" speedFactor="0.90" vaporized=""/>
    <tripinfo id="flow1.7" depart="71.50" departLane="end1_junction_0" departPos="4.10" departSpeed="0.00" departDelay="1.50" arrival="113.30" arrivalLane="junction_end3_1" arrivalPos="486.40" arrivalSpeed="34.17" duration="41.80" routeLength="995.90" waitingTime="0.00" waitingCount="0" stopTime="0.00" timeLoss="12.67" rerouteNo="0" devices="tripinfo_flow1.7" vType="auto" speedFactor="0.85" vaporized=""/>
    <tripinfo id="flow7.7" depart="71.50" departLane="end3_junction_0" departPos="4.10" departSpeed="0.00" departDelay="1.50" arrival="113.40" arrivalLane="junction_end1_1" arrivalPos="486.40" arrivalSpeed="35.81" duration="41.90" routeLength="995.90" waitingTime="0.00" waitingCount="0" stopTime="0.00" timeLoss="14.20" rerouteNo="0" devices="tripinfo_flow7.7" vType="auto" speedFactor="1.00" vaporized=""/>
    <tripinfo id="flow7.8" depart="81.50" departLane="end3_junction_0" departPos="4.10" departSpeed="0.00" departDelay="1.50" arrival="114.60" arrivalLane="junction_end1_1" arrivalPos="486.40" arrivalSpeed="35.80" duration="33.10" routeLength="995.90" waitingTime="0.00" waitingCount="0" stopTime="0.00" timeLoss="5.34" rerouteNo="0" devices="tripinfo_flow7.8" vType="auto" speedFactor="1.12" vaporized=""/>
    <tripinfo id="flow9.8" depart="80.00" departLane="end4_junction_0" departPos="4.10" departSpeed="0.00" departDelay="0.00" arrival="117.30" arrivalLane="junction_end3_0" arrivalPos="486.40" arrivalSpeed="35.90" duration="37.30" routeLength="977.73" waitingTime="0.00" waitingCount="0" stopTime="0.00" timeLoss="8.94" rerouteNo="0" devices="tripinfo_flow9.8" vType="auto" speedFactor="1.02" vaporized=""/>
    <tripinfo id="flow1.8" depart="81.50" departLane="end1_junction_0" departPos="4.10" departSpeed="0.00" departDelay="1.50" arrival="117.50" arrivalLane="junction_end3_1" arrivalPos="486.40" arrivalSpeed="35.84" duration="36.00" routeLength="995.90" waitingTime="0.00" waitingCount="0" stopTime="0.00" timeLoss="8.32" rerouteNo="0" devices="tripinfo_flow1.8" vType="auto" speedFactor="1.14" vaporized=""/>
    <tripinfo id="flow3.8" depart="80.00" departLane="end2_junction_0" departPos="4.10" departSpeed="0.00" departDelay="0.00" arrival="117.60" arrivalLane="junction_end1_0" arrivalPos="486.40" arrivalSpeed="35.98" duration="37.60" routeLength="977.73" waitingTime="0.00" waitingCount="0" stopTime="0.00" timeLoss="9.26" rerouteNo="0" devices="tripinfo_flow3.8" vType="auto" speedFactor="0.97" vaporized=""/>
    <tripinfo id="flow6.8" depart="80.00" departLane="end3_junction_0" departPos="4.10" departSpeed="0.00" departDelay="0.00" arrival="117.70" arrivalLane="junction_end2_0" arrivalPos="486.40" arrivalSpeed="35.98" duration="37.70" routeLength="977.73" waitingTime="0.00" waitingCount="0" stopTime="0.00" timeLoss="9.43" rerouteNo="0" devices="tripinfo_flow6.8" vType="auto" speedFactor="1.08" vaporized=""/>
    <tripinfo id="flow0.8" depart="80.00" departLane="end1_junction_0" departPos="4.10" departSpeed="0.00" departDelay="0.00" arrival="118.10" arrivalLane="junction_end4_0" arrivalPos="486.40" arrivalSpeed="35.91" duration="38.10" routeLength="977.73" waitingTime="0.00" waitingCount="0" stopTime="0.00" timeLoss="9.58" rerouteNo="0" devices="tripinfo_flow0.8" vType="auto" speedFactor="0.90" vaporized=""/>
    <tripinfo id="flow0.9" depart="90.00" departLane="end1_junction_0" departPos="4.10" departSpeed="0.00" departDelay="0.00" arrival="127.70" arrivalLane="junction_end4_0" arrivalPos="486.40" arrivalSpeed="35.94" duration="37.70" routeLength="977.73" waitingTime="0.00" waitingCount="0" stopTime="0.00" timeLoss="9.24" rerouteNo="0" devices="tripinfo_flow0.9" vType="auto" speedFactor="0.99" vaporized=""/>
    <tripinfo id="flow3.9" depart="90.00" departLane="end2_junction_0" departPos="4.10" departSpeed="0.00" departDelay="0.00" arrival="127.80" arrivalLane="junction_end1_0" arrivalPos="486.40" arrivalSpeed="35.76" duration="37.80" routeLength="977.73" waitingTime="0.00" waitingCount="0" stopTime="0.00" timeLoss="9.33" rerouteNo="0" devices="tripinfo_flow3.9" vType="auto" speedFactor="0.91" vaporized=""/>
    <tripinfo id="flow9.9" depart="90.00" departLane="end4_junction_0" departPos="4.10" departSpeed="0.00" departDelay="0.00" arrival="127.80" arrivalLane="junction_end3_0" arrivalPos="486.40" arrivalSpeed="35.97" duration="37.80" routeLength="977.73" waitingTime="0.00" waitingCount="0" stopTime="0.00" timeLoss="9.47" rerouteNo="0" devices="tripinfo_flow9.9" vType="auto" speedFactor="1.02" vaporized=""/>
    <tripinfo id="flow6.9" depart="90.00" departLane="end3_junction_0" departPos="4.10" departSpeed="0.00" departDelay="0.00" arrival="127.90" arrivalLane="junction_end2_0" arrivalPos="486.40" arrivalSpeed="35.88" duration="37.90" routeLength="977.73" waitingTime="0.00" waitingCount="0" stopTime="0.00" timeLoss="9.37" rerouteNo="0" devices="tripinfo_flow6.9" vType="auto" speedFactor="0.91" vaporized=""/>
    <tripinfo id="flow2.4" depart="41.60" departLane="end1_junction_0" departPos="4.10" departSpeed="0.00" departDelay="1.60" arrival="130.10" arrivalLane="junction_end2_2" arrivalPos="486.40" arrivalSpeed="35.86" duration="88.50" routeLength="993.21" waitingTime="48.40" waitingCount="1" stopTime="0.00" timeLoss="59.58" rerouteNo="0" devices="tripinfo_flow2.4" vType="auto" speedFactor="1.18" vaporized=""/>
    <tripinfo id="flow2.5" depart="51.60" departLane="end1_junction_0" departPos="4.10" departSpeed="0.00" departDelay="1.60" arrival="131.30" arrivalLane="junction_end2_2" arrivalPos="486.40" arrivalSpeed="35.93" duration="79.70" routeLength="993.21" waitingTime="33.90" waitingCount="1" stopTime="0.00" timeLoss="50.78" rerouteNo="0" devices="tripinfo_flow2.5" vType="auto" speedFactor="1.18" vaporized=""/>
    <tripinfo id="flow2.6" depart="61.60" departLane="end1_junction_0" departPos="4.10" departSpeed="0.00" departDelay="1.60" arrival="132.90" arrivalLane="junction_end2_2" arrivalPos="486.40" arrivalSpeed="35.88" duration="71.30" routeLength="993.21" waitingTime="24.60" waitingCount="1" stopTime="0.00" timeLoss="42.06" rerouteNo="0" devices="tripinfo_flow2.6" vType="auto" speedFactor="1.04" vaporized=""/>
    <tripinfo id="flow2.7" depart="71.60" departLane="end1_junction_0" departPos="4.10" departSpeed="0.00" departDelay="1.60" arrival="134.10" arrivalLane="junction_end2_2" arrivalPos="486.40" arrivalSpeed="35.91" duration="62.50" routeLength="993.21" waitingTime="15.10" waitingCount="1" stopTime="0.00" timeLoss="33.49" rerouteNo="0" devices="tripinfo_flow2.7" vType="auto" speedFactor="1.17" vaporized=""/>
    <tripinfo id="flow2.8" depart="81.60" departLane="end1_junction_0" departPos="4.10" departSpeed="0.00" departDelay="1.60" arrival="135.50" arrivalLane="junction_end2_2" arrivalPos="486.40" arrivalSpeed="35.90" duration="53.90" routeLength="993.21" waitingTime="5.60" waitingCount="1" stopTime="0.00" timeLoss="24.67" rerouteNo="0" devices="tripinfo_flow2.8" vType="auto" speedFactor="1.02" vaporized=""/>
    <tripinfo id="flow3.10" depart="100.00" departLane="end2_junction_0" departPos="4.10" departSpeed="0.00" departDelay="0.00" arrival="137.40" arrivalLane="junction_end1_0" arrivalPos="486.40" arrivalSpeed="35.77" duration="37.40" routeLength="977.73" waitingTime="0.00" waitingCount="0" stopTime="0.00" timeLoss="9.09" rerouteNo="0" devices="tripinfo_flow3.10" vType="auto" speedFactor="1.06" vaporized=""/>
    <tripinfo id="flow9.10" depart="100.00" departLane="end4_junction_0" departPos="4.10" departSpeed="0.00" departDelay="0.00" arrival="137.50" arrivalLane="junction_end3_0" arrivalPos="486.40" arrivalSpeed="35.90" duration="37.50" routeLength="977.73" waitingTime="0.00" waitingCount="0" stopTime="0.00" timeLoss="9.24" rerouteNo="0" devices="tripinfo_flow9.10" vType="auto" speedFactor="1.03" vaporized=""/>
    <tripinfo id="flow2.9" depart="91.60" departLane="end1_junction_0" departPos="4.10" departSpeed="0.00" departDelay="1.60" arrival="137.70" arrivalLane="junction_end2_2" arrivalPos="486.40" arrivalSpeed="35.17" duration="46.10" routeLength="993.21" waitingTime="0.00" waitingCount="0" stopTime="0.00" timeLoss="15.97" rerouteNo="0" devices="tripinfo_flow2.9" vType="auto" speedFactor="0.88" vaporized=""/>
    <tripinfo id="flow0.10" depart="100.00" departLane="end1_junction_0" departPos="4.10" departSpeed="0.00" departDelay="0.00" arrival="138.50" arrivalLane="junction_end4_0" arrivalPos="486.40" arrivalSpeed="35.85" duration="38.50" routeLength="977.73" waitingTime="0.00" waitingCount="0" stopTime="0.00" timeLoss="10.16" rerouteNo="0" devices="tripinfo_flow0.10" vType="auto" speedFactor="1.02" vaporized=""/>