<?xml version="1.0" encoding="UTF-8"?>

<!-- generated on 2024-04-23 14:20:25 by Eclipse SUMO GUI Version 1.19.0
<configuration xmlns:xsi="http://www.w3.org/2001/XMLSchema-instance" xsi:noNamespaceSchemaLocation="http://sumo.dlr.de/xsd/sumoConfiguration.xsd">

    <input>
        <net-file value="sim_cfg/intelligent_traffic.net.xml"/>
        <route-files value="sim_cfg/intelligent_traffic.rou.xml"/>
    </input>

    <output>
        <tripinfo-output value="sim_cfg/tripinfo.xml"/>
    </output>

    <time>
        <begin value="0"/>
        <end value="500"/>
        <step-length value="0.1"/>
    </time>

    <traci_server>
        <remote-port value="50140"/>
    </traci_server>

    <gui_only>
        <gui-settings-file value="sim_cfg/gui_settings.xml"/>
    </gui_only>

</configuration>
-->

<tripinfos xmlns:xsi="http://www.w3.org/2001/XMLSchema-instance" xsi:noNamespaceSchemaLocation="http://sumo.dlr.de/xsd/tripinfo_file.xsd">
    <tripinfo id="flow0.0" depart="0.00" departLane="end1_junction_0" departPos="4.10" departSpeed="0.00" departDelay="0.00" arrival="37.50" arrivalLane="junction_end4_0" arrivalPos="486.40" arrivalSpeed="35.80" duration="37.50" routeLength="977.73" waitingTime="0.00" waitingCount="0" stopTime="0.00" timeLoss="9.22" rerouteNo="0" devices="tripinfo_flow0.0" vType="auto" speedFactor="1.06" vaporized=""/>
    <tripinfo id="flow0.1" depart="3.40" departLane="end1_junction_0" departPos="4.10" departSpeed="0.00" departDelay="2.40" arrival="41.80" arrivalLane="junction_end4_0" arrivalPos="486.40" arrivalSpeed="35.76" duration="38.40" routeLength="977.73" waitingTime="0.00" waitingCount="0" stopTime="0.00" timeLoss="10.15" rerouteNo="0" devices="tripinfo_flow0.1" vType="auto" speedFactor="1.08" vaporized=""/>
    <tripinfo id="flow0.2" depart="6.90" departLane="end1_junction_0" departPos="4.10" departSpeed="0.00" departDelay="4.90" arrival="45.90" arrivalLane="junction_end4_0" arrivalPos="486.40" arrivalSpeed="35.94" duration="39.00" routeLength="977.73" waitingTime="0.00" waitingCount="0" stopTime="0.00" timeLoss="10.79" rerouteNo="0" devices="tripinfo_flow0.2" vType="auto" speedFactor="1.05" vaporized=""/>
    <tripinfo id="flow0.3" depart="10.40" departLane="end1_junction_0" departPos="4.10" departSpeed="0.00" departDelay="7.40" arrival="51.20" arrivalLane="junction_end4_0" arrivalPos="486.40" arrivalSpeed="34.27" duration="40.80" routeLength="977.73" waitingTime="0.00" waitingCount="0" stopTime="0.00" timeLoss="10.94" rerouteNo="0" devices="tripinfo_flow0.3" vType="auto" speedFactor="0.86" vaporized=""/>
    <tripinfo id="flow0.4" depart="13.90" departLane="end1_junction_0" departPos="4.10" departSpeed="0.00" departDelay="9.90" arrival="53.60" arrivalLane="junction_end4_0" arrivalPos="486.40" arrivalSpeed="35.84" duration="39.70" routeLength="977.73" waitingTime="0.00" waitingCount="0" stopTime="0.00" timeLoss="11.49" rerouteNo="0" devices="tripinfo_flow0.4" vType="auto" speedFactor="1.05" vaporized=""/>
    <tripinfo id="flow0.5" depart="17.80" departLane="end1_junction_0" departPos="4.10" departSpeed="0.00" departDelay="12.80" arrival="57.90" arrivalLane="junction_end4_0" arrivalPos="486.40" arrivalSpeed="35.77" duration="40.10" routeLength="977.73" waitingTime="0.00" waitingCount="0" stopTime="0.00" timeLoss="11.70" rerouteNo="0" devices="tripinfo_flow0.5" vType="auto" speedFactor="0.93" vaporized=""/>
    <tripinfo id="flow0.6" depart="21.30" departLane="end1_junction_0" departPos="4.10" departSpeed="0.00" departDelay="15.30" arrival="61.80" arrivalLane="junction_end4_0" arrivalPos="486.40" arrivalSpeed="35.77" duration="40.50" routeLength="977.73" waitingTime="0.00" waitingCount="0" stopTime="0.00" timeLoss="12.09" rerouteNo="0" devices="tripinfo_flow0.6" vType="auto" speedFactor="0.94" vaporized=""/>
    <tripinfo id="flow0.7" depart="24.70" departLane="end1_junction_0" departPos="4.10" departSpeed="0.00" departDelay="17.70" arrival="65.10" arrivalLane="junction_end4_0" arrivalPos="486.40" arrivalSpeed="35.88" duration="40.40" routeLength="977.73" waitingTime="0.00" waitingCount="0" stopTime="0.00" timeLoss="12.10" rerouteNo="0" devices="tripinfo_flow0.7" vType="auto" speedFactor="1.01" vaporized=""/>
    <tripinfo id="flow0.8" depart="28.20" departLane="end1_junction_0" departPos="4.10" departSpeed="0.00" departDelay="20.20" arrival="70.60" arrivalLane="junction_end4_0" arrivalPos="486.40" arrivalSpeed="32.79" duration="42.40" routeLength="977.73" waitingTime="0.00" waitingCount="0" stopTime="0.00" timeLoss="11.40" rerouteNo="0" devices="tripinfo_flow0.8" vType="auto" speedFactor="0.83" vaporized=""/>
    <tripinfo id="flow0.9" depart="31.60" departLane="end1_junction_0" departPos="4.10" departSpeed="0.00" departDelay="22.60" arrival="72.90" arrivalLane="junction_end4_0" arrivalPos="486.40" arrivalSpeed="35.89" duration="41.30" routeLength="977.73" waitingTime="0.00" waitingCount="0" stopTime="0.00" timeLoss="12.93" rerouteNo="0" devices="tripinfo_flow0.9" vType="auto" speedFactor="0.95" vaporized=""/>
    <tripinfo id="flow0.10" depart="35.30" departLane="end1_junction_0" departPos="4.10" departSpeed="0.00" departDelay="25.30" arrival="75.70" arrivalLane="junction_end4_0" arrivalPos="486.40" arrivalSpeed="35.82" duration="40.40" routeLength="977.73" waitingTime="0.00" waitingCount="0" stopTime="0.00" timeLoss="12.30" rerouteNo="0" devices="tripinfo_flow0.10" vType="auto" speedFactor="1.18" vaporized=""/>
    <tripinfo id="flow0.11" depart="38.90" departLane="end1_junction_0" departPos="4.10" departSpeed="0.00" departDelay="27.90" arrival="79.40" arrivalLane="junction_end4_0" arrivalPos="486.40" arrivalSpeed="35.83" duration="40.50" routeLength="977.73" waitingTime="0.00" waitingCount="0" stopTime="0.00" timeLoss="12.36" rerouteNo="0" devices="tripinfo_flow0.11" vType="auto" speedFactor="1.17" vaporized=""/>
    <tripinfo id="flow0.12" depart="41.70" departLane="end1_junction_0" departPos="4.10" departSpeed="0.00" departDelay="29.70" arrival="83.20" arrivalLane="junction_end4_0" arrivalPos="486.40" arrivalSpeed="35.83" duration="41.50" routeLength="977.73" waitingTime="0.00" waitingCount="0" stopTime="0.00" timeLoss="13.16" rerouteNo="0" devices="tripinfo_flow0.12" vType="auto" speedFactor="0.97" vaporized=""/>
    <tripinfo id="flow0.13" depart="45.20" departLane="end1_junction_0" departPos="4.10" departSpeed="0.00" departDelay="32.20" arrival="87.30" arrivalLane="junction_end4_0" arrivalPos="486.40" arrivalSpeed="35.80" duration="42.10" routeLength="977.73" waitingTime="0.00" waitingCount="0" stopTime="0.00" timeLoss="13.69" rerouteNo="0" devices="tripinfo_flow0.13" vType="auto" speedFactor="0.90" vaporized=""/>
    <tripinfo id="flow0.14" depart="48.90" departLane="end1_junction_0" departPos="4.10" departSpeed="0.00" departDelay="34.90" arrival="90.30" arrivalLane="junction_end4_0" arrivalPos="486.40" arrivalSpeed="35.87" duration="41.40" routeLength="977.73" waitingTime="0.00" waitingCount="0" stopTime="0.00" timeLoss="13.16" rerouteNo="0" devices="tripinfo_flow0.14" vType="auto" speedFactor="1.09" vaporized=""/>
    <tripinfo id="flow0.15" depart="52.40" departLane="end1_junction_0" departPos="4.10" departSpeed="0.00" departDelay="37.40" arrival="94.00" arrivalLane="junction_end4_0" arrivalPos="486.40" arrivalSpeed="35.98" duration="41.60" routeLength="977.73" waitingTime="0.00" waitingCount="0" stopTime="0.00" timeLoss="13.40" rerouteNo="0" devices="tripinfo_flow0.15" vType="auto" speedFactor="1.09" vaporized=""/>
    <tripinfo id="flow1.0" depart="1.70" departLane="end1_junction_0" departPos="4.10" departSpeed="0.00" departDelay="1.70" arrival="98.80" arrivalLane="junction_end3_1" arrivalPos="486.40" arrivalSpeed="35.96" duration="97.10" routeLength="995.90" waitingTime="58.60" waitingCount="1" stopTime="0.00" timeLoss="69.43" rerouteNo="0" devices="tripinfo_flow1.0" vType="auto" speedFactor="0.94" vaporized=""/>
    <tripinfo id="flow0.16" depart="55.90" departLane="end1_junction_0" departPos="4.10" departSpeed="0.00" departDelay="39.90" arrival="98.80" arrivalLane="junction_end4_0" arrivalPos="486.40" arrivalSpeed="35.04" duration="42.90" routeLength="977.73" waitingTime="0.00" waitingCount="0" stopTime="0.00" timeLoss="13.69" rerouteNo="0" devices="tripinfo_flow0.16" vType="auto" speedFactor="0.88" vaporized=""/>
    <tripinfo id="flow0.17" depart="59.40" departLane="end1_junction_0" departPos="4.10" departSpeed="0.00" departDelay="42.40" arrival="101.30" arrivalLane="junction_end4_0" arrivalPos="486.40" arrivalSpeed="35.95" duration="41.90" routeLength="977.73" waitingTime="0.00" waitingCount="0" stopTime="0.00" timeLoss="13.71" rerouteNo="0" devices="tripinfo_flow0.17" vType="auto" speedFactor="1.17" vaporized=""/>
    <tripinfo id="flow0.18" depart="63.30" departLane="end1_junction_0" departPos="4.10" departSpeed="0.00" departDelay="45.30" arrival="105.90" arrivalLane="junction_end4_0" arrivalPos="486.40" arrivalSpeed="35.90" duration="42.60" routeLength="977.73" waitingTime="0.00" waitingCount="0" stopTime="0.00" timeLoss="14.28" rerouteNo="0" devices="tripinfo_flow0.18" vType="auto" speedFactor="1.00" vaporized=""/>
    <tripinfo id="flow0.19" depart="66.80" departLane="end1_junction_0" departPos="4.10" departSpeed="0.00" departDelay="47.80" arrival="109.20" arrivalLane="junction_end4_0" arrivalPos="486.40" arrivalSpeed="35.81" duration="42.40" routeLength="977.73" waitingTime="0.00" waitingCount="0" stopTime="0.00" timeLoss="14.27" rerouteNo="0" devices="tripinfo_flow0.19" vType="auto" speedFactor="1.14" vaporized=""/>
    <tripinfo id="flow1.1" depart="5.10" departLane="end1_junction_0" departPos="4.10" departSpeed="0.00" departDelay="4.10" arrival="112.10" arrivalLane="junction_end3_0" arrivalPos="486.40" arrivalSpeed="13.95" duration="107.00" routeLength="995.90" waitingTime="51.40" waitingCount="1" stopTime="0.00" timeLoss="56.53" rerouteNo="0" devices="tripinfo_flow1.1" vType="auto" speedFactor="0.35" vaporized=""/>
    <tripinfo id="flow0.20" depart="70.40" departLane="end1_junction_0" departPos="4.10" departSpeed="0.00" departDelay="50.40" arrival="112.80" arrivalLane="junction_end4_0" arrivalPos="486.40" arrivalSpeed="35.76" duration="42.40" routeLength="977.73" waitingTime="0.00" waitingCount="0" stopTime="0.00" timeLoss="14.17" rerouteNo="0" devices="tripinfo_flow0.20" vType="auto" speedFactor="1.08" vaporized=""/>
    <tripinfo id="flow1.2" depart="8.60" departLane="end1_junction_0" departPos="4.10" departSpeed="0.00" departDelay="6.60" arrival="114.50" arrivalLane="junction_end3_0" arrivalPos="486.40" arrivalSpeed="13.78" duration="105.90" routeLength="995.90" waitingTime="47.50" waitingCount="1" stopTime="0.00" timeLoss="54.96" rerouteNo="0" devices="tripinfo_flow1.2" vType="auto" speedFactor="0.35" vaporized=""/>
    <tripinfo id="flow1.3" depart="12.10" departLane="end1_junction_0" departPos="4.10" departSpeed="0.00" departDelay="9.10" arrival="116.50" arrivalLane="junction_end3_0" arrivalPos="486.40" arrivalSpeed="13.85" duration="104.40" routeLength="995.90" waitingTime="44.30" waitingCount="1" stopTime="0.00" timeLoss="53.44" rerouteNo="0" devices="tripinfo_flow1.3" vType="auto" speedFactor="0.35" vaporized=""/>
    <tripinfo id="flow0.21" depart="74.50" departLane="end1_junction_0" departPos="4.10" departSpeed="0.00" departDelay="53.50" arrival="116.50" arrivalLane="junction_end4_0" arrivalPos="486.40" arrivalSpeed="35.93" duration="42.00" routeLength="977.73" waitingTime="0.00" waitingCount="0" stopTime="0.00" timeLoss="13.68" rerouteNo="0" devices="tripinfo_flow0.21" vType="auto" speedFactor="0.99" vaporized=""/>
    <tripinfo id="flow1.4" depart="15.50" departLane="end1_junction_0" departPos="4.10" departSpeed="0.00" departDelay="11.50" arrival="118.20" arrivalLane="junction_end3_0" arrivalPos="486.40" arrivalSpeed="13.88" duration="102.70" routeLength="995.90" waitingTime="41.00" waitingCount="1" stopTime="0.00" timeLoss="51.47" rerouteNo="0" devices="tripinfo_flow1.4" vType="auto" speedFactor="0.35" vaporized=""/>
    <tripinfo id="flow1.5" depart="19.50" departLane="end1_junction_0" departPos="4.10" departSpeed="0.00" departDelay="14.50" arrival="119.60" arrivalLane="junction_end3_0" arrivalPos="486.40" arrivalSpeed="13.90" duration="100.10" routeLength="995.90" waitingTime="37.40" waitingCount="1" stopTime="0.00" timeLoss="48.32" rerouteNo="0" devices="tripinfo_flow1.5" vType="auto" speedFactor="0.35" vaporized=""/>
    <tripinfo id="flow0.22" depart="77.90" departLane="end1_junction_0" departPos="4.10" departSpeed="0.00" departDelay="55.90" arrival="120.60" arrivalLane="junction_end4_0" arrivalPos="486.40" arrivalSpeed="35.84" duration="42.70" routeLength="977.73" waitingTime="0.00" waitingCount="0" stopTime="0.00" timeLoss="14.30" rerouteNo="0" devices="tripinfo_flow0.22" vType="auto" speedFactor="0.91" vaporized=""/>
    <tripinfo id="flow1.6" depart="23.00" departLane="end1_junction_0" departPos="4.10" departSpeed="0.00" departDelay="17.00" arrival="120.70" arrivalLane="junction_end3_2" arrivalPos="486.40" arrivalSpeed="13.93" duration="97.70" routeLength="995.90" waitingTime="34.10" waitingCount="1" stopTime="0.00" timeLoss="45.93" rerouteNo="0" devices="tripinfo_flow1.6" vType="auto" speedFactor="0.35" vaporized=""/>
    <tripinfo id="flow1.7" depart="26.40" departLane="end1_junction_0" departPos="4.10" departSpeed="0.00" departDelay="19.40" arrival="122.10" arrivalLane="junction_end3_2" arrivalPos="486.40" arrivalSpeed="13.80" duration="95.70" routeLength="995.90" waitingTime="30.70" waitingCount="1" stopTime="0.00" timeLoss="43.73" rerouteNo="0" devices="tripinfo_flow1.7" vType="auto" speedFactor="0.35" vaporized=""/>
    <tripinfo id="flow1.8" depart="29.80" departLane="end1_junction_0" departPos="4.10" departSpeed="0.00" departDelay="21.80" arrival="123.40" arrivalLane="junction_end3_1" arrivalPos="486.40" arrivalSpeed="13.79" duration="93.60" routeLength="995.90" waitingTime="27.30" waitingCount="1" stopTime="0.00" timeLoss="40.92" rerouteNo="0" devices="tripinfo_flow1.8" vType="auto" speedFactor="0.35" vaporized=""/>
    <tripinfo id="flow0.23" depart="80.90" departLane="end1_junction_0" departPos="4.10" departSpeed="0.00" departDelay="57.90" arrival="123.90" arrivalLane="junction_end4_0" arrivalPos="486.40" arrivalSpeed="35.99" duration="43.00" routeLength="977.73" waitingTime="0.00" waitingCount="0" stopTime="0.00" timeLoss="14.67" rerouteNo="0" devices="tripinfo_flow0.23" vType="auto" speedFactor="1.02" vaporized=""/>
    <tripinfo id="flow1.9" depart="33.20" departLane="end1_junction_0" departPos="4.10" departSpeed="0.00" departDelay="24.20" arrival="124.60" arrivalLane="junction_end3_1" arrivalPos="486.40" arrivalSpeed="13.92" duration="91.40" routeLength="995.90" waitingTime="24.10" waitingCount="1" stopTime="0.00" timeLoss="38.89" rerouteNo="0" devices="tripinfo_flow1.9" vType="auto" speedFactor="0.35" vaporized=""/>
    <tripinfo id="flow1.12" depart="43.40" departLane="end1_junction_0" departPos="4.10" departSpeed="0.00" departDelay="31.40" arrival="124.70" arrivalLane="junction_end3_0" arrivalPos="486.40" arrivalSpeed="13.76" duration="81.30" routeLength="995.90" waitingTime="14.40" waitingCount="1" stopTime="0.00" timeLoss="27.96" rerouteNo="0" devices="tripinfo_flow1.12" vType="auto" speedFactor="0.35" vaporized=""/>
    <tripinfo id="flow1.10" depart="36.50" departLane="end1_junction_0" departPos="4.10" departSpeed="0.00" departDelay="26.50" arrival="126.10" arrivalLane="junction_end3_1" arrivalPos="486.40" arrivalSpeed="13.84" duration="89.60" routeLength="995.90" waitingTime="20.90" waitingCount="1" stopTime="0.00" timeLoss="36.80" rerouteNo="0" devices="tripinfo_flow1.10" vType="auto" speedFactor="0.35" vaporized=""/>
    <tripinfo id="flow1.15" depart="54.10" departLane="end1_junction_0" departPos="4.10" departSpeed="0.00" departDelay="39.10" arrival="126.20" arrivalLane="junction_end3_0" arrivalPos="486.40" arrivalSpeed="13.81" duration="72.10" routeLength="995.90" waitingTime="4.60" waitingCount="1" stopTime="0.00" timeLoss="17.92" rerouteNo="0" devices="tripinfo_flow1.15" vType="auto" speedFactor="0.35" vaporized=""/>
    <tripinfo id="flow1.11" depart="40.00" departLane="end1_junction_0" departPos="4.10" departSpeed="0.00" departDelay="29.00" arrival="127.50" arrivalLane="junction_end3_2" arrivalPos="486.40" arrivalSpeed="13.85" duration="87.50" routeLength="995.90" waitingTime="17.70" waitingCount="1" stopTime="0.00" timeLoss="34.47" rerouteNo="0" devices="tripinfo_flow1.11" vType="auto" speedFactor="0.35" vaporized=""/>
    <tripinfo id="flow0.24" depart="84.30" departLane="end1_junction_0" departPos="4.10" departSpeed="0.00" departDelay="60.30" arrival="127.50" arrivalLane="junction_end4_0" arrivalPos="486.40" arrivalSpeed="35.96" duration="43.20" routeLength="977.73" waitingTime="0.00" waitingCount="0" stopTime="0.00" timeLoss="14.78" rerouteNo="0" devices="tripinfo_flow0.24" vType="auto" speedFactor="0.94" vaporized=""/>
    <tripinfo id="flow1.13" depart="46.80" departLane="end1_junction_0" departPos="4.10" departSpeed="0.00" departDelay="33.80" arrival="128.80" arrivalLane="junction_end3_1" arrivalPos="486.40" arrivalSpeed="13.81" duration="82.00" routeLength="995.90" waitingTime="11.20" waitingCount="1" stopTime="0.00" timeLoss="28.39" rerouteNo="0" devices="tripinfo_flow1.13" vType="auto" speedFactor="0.35" vaporized=""/>
    <tripinfo id="flow1.14" depart="50.10" departLane="end1_junction_0" departPos="4.10" departSpeed="0.00" departDelay="36.10" arrival="128.80" arrivalLane="junction_end3_0" arrivalPos="486.40" arrivalSpeed="13.87" duration="78.70" routeLength="995.90" waitingTime="8.20" waitingCount="1" stopTime="0.00" timeLoss="24.80" rerouteNo="0" devices="tripinfo_flow1.14" vType="auto" speedFactor="0.35" vaporized=""/>
    <tripinfo id="flow1.18" depart="65.00" departLane="end1_junction_0" departPos="4.10" departSpeed="0.00" departDelay="47.00" arrival="130.00" arrivalLane="junction_end3_1" arrivalPos="486.40" arrivalSpeed="18.47" duration="65.00" routeLength="995.90" waitingTime="0.00" waitingCount="0" stopTime="0.00" timeLoss="37.33" rerouteNo="0" devices="tripinfo_flow1.18" vType="auto" speedFactor="1.00" vaporized=""/>
    <tripinfo id="flow1.19" depart="68.30" departLane="end1_junction_0" departPos="4.10" departSpeed="0.00" departDelay="49.30" arrival="130.00" arrivalLane="junction_end3_0" arrivalPos="486.40" arrivalSpeed="18.54" duration="61.70" routeLength="995.90" waitingTime="0.00" waitingCount="0" stopTime="0.00" timeLoss="34.02" rerouteNo="0" devices="tripinfo_flow1.19" vType="auto" speedFactor="1.02" vaporized=""/>
    <tripinfo id="flow1.16" depart="57.30" departLane="end1_junction_0" departPos="4.10" departSpeed="0.00" departDelay="41.30" arrival="130.10" arrivalLane="junction_end3_2" arrivalPos="486.40" arrivalSpeed="13.76" duration="72.80" routeLength="995.90" waitingTime="1.00" waitingCount="1" stopTime="0.00" timeLoss="17.83" rerouteNo="0" devices="tripinfo_flow1.16" vType="auto" speedFactor="0.35" vaporized=""/>
    <tripinfo id="flow0.25" depart="87.10" departLane="end1_junction_0" departPos="4.10" departSpeed="0.00" departDelay="62.10" arrival="130.70" arrivalLane="junction_end4_0" arrivalPos="486.40" arrivalSpeed="35.93" duration="43.60" routeLength="977.73" waitingTime="0.00" waitingCount="0" stopTime="0.00" timeLoss="15.22" rerouteNo="0" devices="tripinfo_flow0.25" vType="auto" speedFactor="0.98" vaporized=""/>
    <tripinfo id="flow1.20" depart="71.40" departLane="end1_junction_0" departPos="4.10" departSpeed="0.00" departDelay="51.40" arrival="131.20" arrivalLane="junction_end3_1" arrivalPos="486.40" arrivalSpeed="20.04" duration="59.80" routeLength="995.90" waitingTime="0.00" waitingCount="0" stopTime="0.00" timeLoss="32.12" rerouteNo="0" devices="tripinfo_flow1.20" vType="auto" speedFactor="1.12" vaporized=""/>
    <tripinfo id="flow1.17" depart="60.40" departLane="end1_junction_0" departPos="4.10" departSpeed="0.00" departDelay="43.40" arrival="131.40" arrivalLane="junction_end3_2" arrivalPos="486.40" arrivalSpeed="18.95" duration="71.00" routeLength="995.90" waitingTime="0.00" waitingCount="0" stopTime="0.00" timeLoss="43.30" rerouteNo="0" devices="tripinfo_flow1.17" vType="auto" speedFactor="1.02" vaporized=""/>
    <tripinfo id="flow1.22" depart="79.10" departLane="end1_junction_0" departPos="4.10" departSpeed="0.00" departDelay="57.10" arrival="131.80" arrivalLane="junction_end3_0" arrivalPos="486.40" arrivalSpeed="22.07" duration="52.70" routeLength="995.90" waitingTime="0.00" waitingCount="0" stopTime="0.00" timeLoss="25.03" rerouteNo="0" devices="tripinfo_flow1.22" vType="auto" speedFactor="0.91" vaporized=""/>
    <tripinfo id="flow1.21" depart="76.20" departLane="end1_junction_0" departPos="4.10" departSpeed="0.00" departDelay="55.20" arrival="132.50" arrivalLane="junction_end3_2" arrivalPos="486.40" arrivalSpeed="21.50" duration="56.30" routeLength="995.90" waitingTime="0.00" waitingCount="0" stopTime="0.00" timeLoss="28.60" rerouteNo="0" devices="tripinfo_flow1.21" vType="auto" speedFactor="0.94" vaporized=""/>
    <tripinfo id="flow1.23" depart="82.60" departLane="end1_junction_0" departPos="4.10" departSpeed="0.00" departDelay="59.60" arrival="133.60" arrivalLane="junction_end3_2" arrivalPos="486.40" arrivalSpeed="23.56" duration="51.00" routeLength="995.90" waitingTime="0.00" waitingCount="0" stopTime="0.00" timeLoss="23.28" rerouteNo="0" devices="tripinfo_flow1.23" vType="auto" speedFactor="1.02" vaporized=""/>
    <tripinfo id="flow0.26" depart="90.60" departLane="end1_junction_0" departPos="4.10" departSpeed="0.00" departDelay="64.60" arrival="134.10" arrivalLane="junction_end4_0" arrivalPos="486.40" arrivalSpeed="35.77" duration="43.50" routeLength="977.73" waitingTime="0.00" waitingCount="0" stopTime="0.00" timeLoss="15.12" rerouteNo="0" devices="tripinfo_flow0.26" vType="auto" speedFactor="1.01" vaporized=""/>
    <tripinfo id="flow1.24" depart="85.40" departLane="end1_junction_0" departPos="4.10" departSpeed="0.00" departDelay="61.40" arrival="134.40" arrivalLane="junction_end3_1" arrivalPos="486.40" arrivalSpeed="25.90" duration="49.00" routeLength="995.90" waitingTime="0.00" waitingCount="0" stopTime="0.00" timeLoss="21.32" rerouteNo="0" devices="tripinfo_flow1.24" vType="auto" speedFactor="1.06" vaporized=""/>
    <tripinfo id="flow1.25" depart="88.80" departLane="end1_junction_0" departPos="4.10" departSpeed="0.00" departDelay="63.80" arrival="134.90" arrivalLane="junction_end3_2" arrivalPos="486.40" arrivalSpeed="29.89" duration="46.10" routeLength="995.90" waitingTime="0.00" waitingCount="0" stopTime="0.00" timeLoss="18.41" rerouteNo="0" devices="tripinfo_flow1.25" vType="auto" speedFactor="1.03" vaporized=""/>
    <tripinfo id="flow1.26" depart="91.50" departLane="end1_junction_0" departPos="4.10" departSpeed="0.00" departDelay="65.50" arrival="136.00" arrivalLane="junction_end3_2" arrivalPos="486.40" arrivalSpeed="33.18" duration="44.50" routeLength="995.90" waitingTime="0.00" waitingCount="0" stopTime="0.00" timeLoss="16.75" rerouteNo="0" devices="tripinfo_flow1.26" vType="auto" speedFactor="1.09" vaporized=""/>
    <tripinfo id="flow1.27" depart="95.00" departLane="end1_junction_0" departPos="4.10" departSpeed="0.00" departDelay="68.00" arrival="137.20" arrivalLane="junction_end3_1" arrivalPos="486.40" arrivalSpeed="35.82" duration="42.20" routeLength="995.90" waitingTime="0.00" waitingCount="0" stopTime="0.00" timeLoss="14.46" rerouteNo="0" devices="tripinfo_flow1.27" vType="auto" speedFactor="1.02" vaporized=""/>
    <tripinfo id="flow0.27" depart="93.30" departLane="end1_junction_0" departPos="4.10" departSpeed="0.00" departDelay="66.30" arrival="137.40" arrivalLane="junction_end4_0" arrivalPos="486.40" arrivalSpeed="35.99" duration="44.10" routeLength="977.73" waitingTime="0.00" waitingCount="0" stopTime="0.00" timeLoss="15.81" rerouteNo="0" devices="tripinfo_flow0.27" vType="auto" speedFactor="1.00" vaporized=""/>
    <tripinfo id="flow1.28" depart="97.60" departLane="end1_junction_0" departPos="4.10" departSpeed="0.00" departDelay="69.60" arrival="139.90" arrivalLane="junction_end3_1" arrivalPos="486.40" arrivalSpeed="35.99" duration="42.30" routeLength="995.90" waitingTime="0.00" waitingCount="0" stopTime="0.00" timeLoss="14.54" rerouteNo="0" devices="tripinfo_flow1.28" vType="auto" speedFactor="0.98" vaporized=""/>
    <tripinfo id="flow0.28" depart="96.70" departLane="end1_junction_0" departPos="4.10" departSpeed="0.00" departDelay="68.70" arrival="140.10" arrivalLane="junction_end4_0" arrivalPos="486.40" arrivalSpeed="35.92" duration="43.40" routeLength="977.73" waitingTime="0.00" waitingCount="0" stopTime="0.00" timeLoss="15.22" rerouteNo="0" devices="tripinfo_flow0.28" vType="auto" speedFactor="1.15" vaporized=""/>
    <tripinfo id="flow0.29" depart="99.40" departLane="end1_junction_0" departPos="4.10" departSpeed="0.00" departDelay="70.40" arrival="143.90" arrivalLane="junction_end4_0" arrivalPos="486.40" arrivalSpeed="35.90" duration="44.50" routeLength="977.73" waitingTime="0.00" waitingCount="0" stopTime="0.00" timeLoss="16.24" rerouteNo="0" devices="tripinfo_flow0.29" vType="auto" speedFactor="1.04" vaporized=""/>
    <tripinfo id="flow0.30" depart="102.80" departLane="end1_junction_0" departPos="4.10" departSpeed="0.00" departDelay="72.80" arrival="147.40" arrivalLane="junction_end4_0" arrivalPos="486.40" arrivalSpeed="35.90" duration="44.60" routeLength="977.73" waitingTime="0.00" waitingCount="0" stopTime="0.00" timeLoss="16.23" rerouteNo="0" devices="tripinfo_flow0.30" vType="auto" speedFactor="1.02" vaporized=""/>
    <tripinfo id="flow2.0" depart="1.80" departLane="end1_junction_0" departPos="4.10" departSpeed="0.00" departDelay="1.80" arrival="149.50" arrivalLane="junction_end2_2" arrivalPos="486.40" arrivalSpeed="35.90" duration="147.70" routeLength="993.21" waitingTime="106.80" waitingCount="1" stopTime="0.00" timeLoss="118.49" rerouteNo="0" devices="tripinfo_flow2.0" vType="auto" speedFactor="1.01" vaporized=""/>
    <tripinfo id="flow0.31" depart="105.50" departLane="end1_junction_0" departPos="4.10" departSpeed="0.00" departDelay="74.50" arrival="150.50" arrivalLane="junction_end4_0" arrivalPos="486.40" arrivalSpeed="35.97" duration="45.00" routeLength="977.73" waitingTime="0.00" waitingCount="0" stopTime="0.00" timeLoss="16.53" rerouteNo="0" devices="tripinfo_flow0.31" vType="auto" speedFactor="0.92" vaporized=""/>
    <tripinfo id="flow0.32" depart="108.90" departLane="end1_junction_0" departPos="4.10" departSpeed="0.00" departDelay="76.90" arrival="153.80" arrivalLane="junction_end4_0" arrivalPos="486.40" arrivalSpeed="35.80" duration="44.90" routeLength="977.73" waitingTime="0.00" waitingCount="0" stopTime="0.00" timeLoss="16.63" rerouteNo="0" devices="tripinfo_flow0.32" vType="auto" speedFactor="1.01" vaporized=""/>
    <tripinfo id="flow2.1" depart="5.20" departLane="end1_junction_0" departPos="4.10" departSpeed="0.00" departDelay="4.20" arrival="156.60" arrivalLane="junction_end2_0" arrivalPos="486.40" arrivalSpeed="13.84" duration="151.40" routeLength="993.21" waitingTime="99.40" waitingCount="1" stopTime="0.00" timeLoss="99.98" rerouteNo="0" devices="tripinfo_flow2.1" vType="auto" speedFactor="0.35" vaporized=""/>
    <tripinfo id="flow0.33" depart="111.40" departLane="end1_junction_0" departPos="4.10" departSpeed="0.00" departDelay="78.40" arrival="156.80" arrivalLane="junction_end4_0" arrivalPos="486.40" arrivalSpeed="35.96" duration="45.40" routeLength="977.73" waitingTime="0.00" waitingCount="0" stopTime="0.00" timeLoss="17.16" rerouteNo="0" devices="tripinfo_flow0.33" vType="auto" speedFactor="1.10" vaporized=""/>
    <tripinfo id="flow2.2" depart="8.70" departLane="end1_junction_0" departPos="4.10" departSpeed="0.00" departDelay="6.70" arrival="158.80" arrivalLane="junction_end2_0" arrivalPos="486.40" arrivalSpeed="13.90" duration="150.10" routeLength="993.21" waitingTime="96.30" waitingCount="1" stopTime="0.00" timeLoss="99.46" rerouteNo="0" devices="tripinfo_flow2.2" vType="auto" speedFactor="0.35" vaporized=""/>
    <tripinfo id="flow0.34" depart="114.80" departLane="end1_junction_0" departPos="4.10" departSpeed="0.00" departDelay="80.80" arrival="160.20" arrivalLane="junction_end4_0" arrivalPos="486.40" arrivalSpeed="36.00" duration="45.40" routeLength="977.73" waitingTime="0.00" waitingCount="0" stopTime="0.00" timeLoss="17.07" rerouteNo="0" devices="tripinfo_flow0.34" vType="auto" speedFactor="0.97" vaporized=""/>
    <tripinfo id="flow2.3" depart="12.20" departLane="end1_junction_0" departPos="4.10" departSpeed="0.00" departDelay="9.20" arrival="160.90" arrivalLane="junction_end2_0" arrivalPos="486.40" arrivalSpeed="13.89" duration="148.70" routeLength="993.21" waitingTime="93.10" waitingCount="1" stopTime="0.00" timeLoss="97.79" rerouteNo="0" devices="tripinfo_flow2.3" vType="auto" speedFactor="0.35" vaporized=""/>
    <tripinfo id="flow2.4" depart="16.10" departLane="end1_junction_0" departPos="4.10" departSpeed="0.00" departDelay="12.10" arrival="162.80" arrivalLane="junction_end2_0" arrivalPos="486.40" arrivalSpeed="13.81" duration="146.70" routeLength="993.21" waitingTime="89.90" waitingCount="1" stopTime="0.00" timeLoss="95.53" rerouteNo="0" devices="tripinfo_flow2.4" vType="auto" speedFactor="0.35" vaporized=""/>
    <tripinfo id="flow0.35" depart="117.40" departLane="end1_junction_0" departPos="4.10" departSpeed="0.00" departDelay="82.40" arrival="163.50" arrivalLane="junction_end4_0" arrivalPos="486.40" arrivalSpeed="35.86" duration="46.10" routeLength="977.73" waitingTime="0.00" waitingCount="0" stopTime="0.00" timeLoss="17.80" rerouteNo="0" devices="tripinfo_flow0.35" vType="auto" speedFactor="1.07" vaporized=""/>