<?xml version="1.0" encoding="UTF-8"?>

<!-- generated on 2024-05-17 12:22:08 by Eclipse SUMO GUI Version 1.20.0
<configuration xmlns:xsi="http://www.w3.org/2001/XMLSchema-instance" xsi:noNamespaceSchemaLocation="http://sumo.dlr.de/xsd/sumoConfiguration.xsd">

    <input>
        <net-file value="sim_cfg/intelligent_traffic.net.xml"/>
        <route-files value="sim_cfg/intelligent_traffic.rou.xml"/>
    </input>

    <output>
        <tripinfo-output value="sim_cfg/tripinfo.xml"/>
    </output>

    <time>
        <begin value="0"/>
        <end value="500"/>
        <step-length value="0.1"/>
    </time>

    <traci_server>
        <remote-port value="49370"/>
    </traci_server>

    <gui_only>
        <gui-settings-file value="sim_cfg/gui_settings.xml"/>
    </gui_only>

</configuration>
-->

<tripinfos xmlns:xsi="http://www.w3.org/2001/XMLSchema-instance" xsi:noNamespaceSchemaLocation="http://sumo.dlr.de/xsd/tripinfo_file.xsd">
    <tripinfo id="flow0.0" depart="0.00" departLane="end1_junction_0" departPos="4.10" departSpeed="0.00" departDelay="0.00" arrival="42.80" arrivalLane="junction_end4_0" arrivalPos="486.40" arrivalSpeed="33.25" duration="42.80" routeLength="977.73" waitingTime="0.00" waitingCount="0" stopTime="0.00" timeLoss="13.02" rerouteNo="0" devices="tripinfo_flow0.0" vType="vtypeauto" speedFactor="1.94" vaporized=""/>
    <tripinfo id="flow0.1" depart="4.90" departLane="end1_junction_0" departPos="4.10" departSpeed="0.00" departDelay="3.90" arrival="52.60" arrivalLane="junction_end4_0" arrivalPos="486.40" arrivalSpeed="33.26" duration="47.70" routeLength="977.73" waitingTime="0.00" waitingCount="0" stopTime="0.00" timeLoss="17.91" rerouteNo="0" devices="tripinfo_flow0.1" vType="vtypeauto" speedFactor="1.94" vaporized=""/>
    <tripinfo id="flow0.2" depart="10.00" departLane="end1_junction_0" departPos="4.10" departSpeed="0.00" departDelay="8.00" arrival="59.30" arrivalLane="junction_end4_0" arrivalPos="486.40" arrivalSpeed="33.26" duration="49.30" routeLength="977.73" waitingTime="0.00" waitingCount="0" stopTime="0.00" timeLoss="19.41" rerouteNo="0" devices="tripinfo_flow0.2" vType="vtypeauto" speedFactor="1.93" vaporized=""/>
    <tripinfo id="flow0.3" depart="14.30" departLane="end1_junction_0" departPos="4.10" departSpeed="0.00" departDelay="11.30" arrival="65.30" arrivalLane="junction_end4_0" arrivalPos="486.40" arrivalSpeed="33.30" duration="51.00" routeLength="977.73" waitingTime="0.00" waitingCount="0" stopTime="0.00" timeLoss="21.17" rerouteNo="0" devices="tripinfo_flow0.3" vType="vtypeauto" speedFactor="1.94" vaporized=""/>
    <tripinfo id="flow0.4" depart="18.60" departLane="end1_junction_0" departPos="4.10" departSpeed="0.00" departDelay="14.60" arrival="68.90" arrivalLane="junction_end4_0" arrivalPos="486.40" arrivalSpeed="33.25" duration="50.30" routeLength="977.73" waitingTime="0.00" waitingCount="0" stopTime="0.00" timeLoss="20.42" rerouteNo="0" devices="tripinfo_flow0.4" vType="vtypeauto" speedFactor="1.83" vaporized=""/>
    <tripinfo id="flow1.0" depart="2.40" departLane="end1_junction_0" departPos="4.10" departSpeed="0.00" departDelay="2.40" arrival="73.00" arrivalLane="junction_end3_1" arrivalPos="486.40" arrivalSpeed="33.28" duration="70.60" routeLength="995.90" waitingTime="21.60" waitingCount="1" stopTime="0.00" timeLoss="40.72" rerouteNo="0" devices="tripinfo_flow1.0" vType="vtypeauto@flow1.0" speedFactor="1.83" vaporized=""/>
    <tripinfo id="flow0.5" depart="23.50" departLane="end1_junction_0" departPos="4.10" departSpeed="0.00" departDelay="18.50" arrival="75.40" arrivalLane="junction_end4_0" arrivalPos="486.40" arrivalSpeed="33.27" duration="51.90" routeLength="977.73" waitingTime="0.00" waitingCount="0" stopTime="0.00" timeLoss="22.12" rerouteNo="0" devices="tripinfo_flow0.5" vType="vtypeauto" speedFactor="1.95" vaporized=""/>
    <tripinfo id="flow0.6" depart="26.90" departLane="end1_junction_0" departPos="4.10" departSpeed="0.00" departDelay="20.90" arrival="78.80" arrivalLane="junction_end4_0" arrivalPos="486.40" arrivalSpeed="33.30" duration="51.90" routeLength="977.73" waitingTime="0.00" waitingCount="0" stopTime="0.00" timeLoss="22.13" rerouteNo="0" devices="tripinfo_flow0.6" vType="vtypeauto" speedFactor="1.97" vaporized=""/>
    <tripinfo id="flow1.2" depart="11.80" departLane="end1_junction_0" departPos="4.10" departSpeed="0.00" departDelay="9.80" arrival="78.90" arrivalLane="junction_end3_1" arrivalPos="486.40" arrivalSpeed="33.25" duration="67.10" routeLength="995.90" waitingTime="0.00" waitingCount="0" stopTime="0.00" timeLoss="37.20" rerouteNo="0" devices="tripinfo_flow1.2" vType="vtypeauto" speedFactor="1.88" vaporized=""/>
    <tripinfo id="flow1.3" depart="16.10" departLane="end1_junction_0" departPos="4.10" departSpeed="0.00" departDelay="13.10" arrival="81.40" arrivalLane="junction_end3_2" arrivalPos="486.40" arrivalSpeed="33.30" duration="65.30" routeLength="995.90" waitingTime="0.00" waitingCount="0" stopTime="0.00" timeLoss="35.34" rerouteNo="0" devices="tripinfo_flow1.3" vType="vtypeauto" speedFactor="1.98" vaporized=""/>
    <tripinfo id="flow0.7" depart="30.50" departLane="end1_junction_0" departPos="4.10" departSpeed="0.00" departDelay="23.50" arrival="83.30" arrivalLane="junction_end4_0" arrivalPos="486.40" arrivalSpeed="33.28" duration="52.80" routeLength="977.73" waitingTime="0.00" waitingCount="0" stopTime="0.00" timeLoss="22.95" rerouteNo="0" devices="tripinfo_flow0.7" vType="vtypeauto" speedFactor="2.00" vaporized=""/>
    <tripinfo id="flow1.4" depart="21.00" departLane="end1_junction_0" departPos="4.10" departSpeed="0.00" departDelay="17.00" arrival="83.70" arrivalLane="junction_end3_1" arrivalPos="486.40" arrivalSpeed="33.23" duration="62.70" routeLength="995.90" waitingTime="0.00" waitingCount="0" stopTime="0.00" timeLoss="32.81" rerouteNo="0" devices="tripinfo_flow1.4" vType="vtypeauto" speedFactor="1.87" vaporized=""/>
    <tripinfo id="flow1.5" depart="24.40" departLane="end1_junction_0" departPos="4.10" departSpeed="0.00" departDelay="19.40" arrival="86.60" arrivalLane="junction_end3_1" arrivalPos="486.40" arrivalSpeed="33.32" duration="62.20" routeLength="995.90" waitingTime="0.00" waitingCount="0" stopTime="0.00" timeLoss="32.28" rerouteNo="0" devices="tripinfo_flow1.5" vType="vtypeauto" speedFactor="1.93" vaporized=""/>
    <tripinfo id="flow0.8" depart="34.00" departLane="end1_junction_0" departPos="4.10" departSpeed="0.00" departDelay="26.00" arrival="87.20" arrivalLane="junction_end4_0" arrivalPos="486.40" arrivalSpeed="33.21" duration="53.20" routeLength="977.73" waitingTime="0.00" waitingCount="0" stopTime="0.00" timeLoss="23.33" rerouteNo="0" devices="tripinfo_flow0.8" vType="vtypeauto" speedFactor="1.85" vaporized=""/>
    <tripinfo id="flow1.6" depart="28.00" departLane="end1_junction_0" departPos="4.10" departSpeed="0.00" departDelay="22.00" arrival="89.40" arrivalLane="junction_end3_1" arrivalPos="486.40" arrivalSpeed="33.25" duration="61.40" routeLength="995.90" waitingTime="0.00" waitingCount="0" stopTime="0.00" timeLoss="31.52" rerouteNo="0" devices="tripinfo_flow1.6" vType="vtypeauto" speedFactor="1.90" vaporized=""/>
    <tripinfo id="flow1.1" depart="7.40" departLane="end1_junction_0" departPos="4.10" departSpeed="0.00" departDelay="6.40" arrival="91.80" arrivalLane="junction_end3_0" arrivalPos="486.40" arrivalSpeed="14.00" duration="84.40" routeLength="995.90" waitingTime="2.20" waitingCount="1" stopTime="0.00" timeLoss="32.96" rerouteNo="0" devices="tripinfo_flow1.1" vType="vtypeauto@flow1.1" speedFactor="0.35" vaporized=""/>
    <tripinfo id="flow0.9" depart="38.90" departLane="end1_junction_0" departPos="4.10" departSpeed="0.00" departDelay="29.90" arrival="91.80" arrivalLane="junction_end4_0" arrivalPos="486.40" arrivalSpeed="33.22" duration="52.90" routeLength="977.73" waitingTime="0.00" waitingCount="0" stopTime="0.00" timeLoss="23.11" rerouteNo="0" devices="tripinfo_flow0.9" vType="vtypeauto" speedFactor="1.90" vaporized=""/>
    <tripinfo id="flow1.7" depart="32.90" departLane="end1_junction_0" departPos="4.10" departSpeed="0.00" departDelay="25.90" arrival="92.30" arrivalLane="junction_end3_1" arrivalPos="486.40" arrivalSpeed="33.22" duration="59.40" routeLength="995.90" waitingTime="0.00" waitingCount="0" stopTime="0.00" timeLoss="29.43" rerouteNo="0" devices="tripinfo_flow1.7" vType="vtypeauto" speedFactor="1.90" vaporized=""/>
    <tripinfo id="flow1.8" depart="36.40" departLane="end1_junction_0" departPos="4.10" departSpeed="0.00" departDelay="28.40" arrival="95.10" arrivalLane="junction_end3_1" arrivalPos="486.40" arrivalSpeed="33.25" duration="58.70" routeLength="995.90" waitingTime="0.00" waitingCount="0" stopTime="0.00" timeLoss="28.74" rerouteNo="0" devices="tripinfo_flow1.8" vType="vtypeauto" speedFactor="1.85" vaporized=""/>
    <tripinfo id="flow0.10" depart="44.10" departLane="end1_junction_0" departPos="4.10" departSpeed="0.00" departDelay="34.10" arrival="96.50" arrivalLane="junction_end4_0" arrivalPos="486.40" arrivalSpeed="33.29" duration="52.40" routeLength="977.73" waitingTime="0.00" waitingCount="0" stopTime="0.00" timeLoss="22.57" rerouteNo="0" devices="tripinfo_flow0.10" vType="vtypeauto" speedFactor="1.94" vaporized=""/>
    <tripinfo id="flow1.9" depart="41.30" departLane="end1_junction_0" departPos="4.10" departSpeed="0.00" departDelay="32.30" arrival="97.90" arrivalLane="junction_end3_1" arrivalPos="486.40" arrivalSpeed="33.22" duration="56.60" routeLength="995.90" waitingTime="0.00" waitingCount="0" stopTime="0.00" timeLoss="26.65" rerouteNo="0" devices="tripinfo_flow1.9" vType="vtypeauto" speedFactor="1.97" vaporized=""/>
    <tripinfo id="flow1.10" depart="45.40" departLane="end1_junction_0" departPos="4.10" departSpeed="0.00" departDelay="35.40" arrival="100.70" arrivalLane="junction_end3_1" arrivalPos="486.40" arrivalSpeed="33.29" duration="55.30" routeLength="995.90" waitingTime="0.00" waitingCount="0" stopTime="0.00" timeLoss="25.37" rerouteNo="0" devices="tripinfo_flow1.10" vType="vtypeauto" speedFactor="1.88" vaporized=""/>
    <tripinfo id="flow0.11" depart="50.10" departLane="end1_junction_0" departPos="4.10" departSpeed="0.00" departDelay="39.10" arrival="101.70" arrivalLane="junction_end4_0" arrivalPos="486.40" arrivalSpeed="33.22" duration="51.60" routeLength="977.73" waitingTime="0.00" waitingCount="0" stopTime="0.00" timeLoss="21.78" rerouteNo="0" devices="tripinfo_flow0.11" vType="vtypeauto" speedFactor="1.91" vaporized=""/>
    <tripinfo id="flow1.11" depart="51.10" departLane="end1_junction_0" departPos="4.10" departSpeed="0.00" departDelay="40.10" arrival="103.50" arrivalLane="junction_end3_1" arrivalPos="486.40" arrivalSpeed="33.25" duration="52.40" routeLength="995.90" waitingTime="0.00" waitingCount="0" stopTime="0.00" timeLoss="22.52" rerouteNo="0" devices="tripinfo_flow1.11" vType="vtypeauto" speedFactor="1.97" vaporized=""/>
    <tripinfo id="flow0.12" depart="53.60" departLane="end1_junction_0" departPos="4.10" departSpeed="0.00" departDelay="41.60" arrival="105.80" arrivalLane="junction_end4_0" arrivalPos="486.40" arrivalSpeed="33.30" duration="52.20" routeLength="977.73" waitingTime="0.00" waitingCount="0" stopTime="0.00" timeLoss="22.30" rerouteNo="0" devices="tripinfo_flow0.12" vType="vtypeauto" speedFactor="1.96" vaporized=""/>
    <tripinfo id="flow1.12" depart="56.00" departLane="end1_junction_0" departPos="4.10" departSpeed="0.00" departDelay="44.00" arrival="107.00" arrivalLane="junction_end3_1" arrivalPos="486.40" arrivalSpeed="33.30" duration="51.00" routeLength="995.90" waitingTime="0.00" waitingCount="0" stopTime="0.00" timeLoss="21.12" rerouteNo="0" devices="tripinfo_flow1.12" vType="vtypeauto" speedFactor="1.98" vaporized=""/>
    <tripinfo id="flow0.13" depart="57.20" departLane="end1_junction_0" departPos="4.10" departSpeed="0.00" departDelay="44.20" arrival="109.20" arrivalLane="junction_end4_0" arrivalPos="486.40" arrivalSpeed="33.22" duration="52.00" routeLength="977.73" waitingTime="0.00" waitingCount="0" stopTime="0.00" timeLoss="22.22" rerouteNo="0" devices="tripinfo_flow0.13" vType="vtypeauto" speedFactor="2.00" vaporized=""/>
    <tripinfo id="flow1.13" depart="59.70" departLane="end1_junction_0" departPos="4.10" departSpeed="0.00" departDelay="46.70" arrival="111.10" arrivalLane="junction_end3_1" arrivalPos="486.40" arrivalSpeed="33.23" duration="51.40" routeLength="995.90" waitingTime="0.00" waitingCount="0" stopTime="0.00" timeLoss="21.48" rerouteNo="0" devices="tripinfo_flow1.13" vType="vtypeauto" speedFactor="1.97" vaporized=""/>
    <tripinfo id="flow0.14" depart="62.30" departLane="end1_junction_0" departPos="4.10" departSpeed="0.00" departDelay="48.30" arrival="115.70" arrivalLane="junction_end4_0" arrivalPos="486.40" arrivalSpeed="33.32" duration="53.40" routeLength="977.73" waitingTime="0.00" waitingCount="0" stopTime="0.00" timeLoss="23.51" rerouteNo="0" devices="tripinfo_flow0.14" vType="vtypeauto" speedFactor="1.89" vaporized=""/>
    <tripinfo id="flow0.15" depart="67.50" departLane="end1_junction_0" departPos="4.10" departSpeed="0.00" departDelay="52.50" arrival="120.50" arrivalLane="junction_end4_0" arrivalPos="486.40" arrivalSpeed="33.25" duration="53.00" routeLength="977.73" waitingTime="0.00" waitingCount="0" stopTime="0.00" timeLoss="23.18" rerouteNo="0" devices="tripinfo_flow0.15" vType="vtypeauto" speedFactor="1.91" vaporized=""/>
    <tripinfo id="flow2.0" depart="2.50" departLane="end1_junction_0" departPos="4.10" departSpeed="0.00" departDelay="2.50" arrival="123.00" arrivalLane="junction_end2_2" arrivalPos="486.40" arrivalSpeed="33.25" duration="120.50" routeLength="993.21" waitingTime="67.60" waitingCount="1" stopTime="0.00" timeLoss="90.16" rerouteNo="0" devices="tripinfo_flow2.0" vType="vtypeauto@flow2.0" speedFactor="1.89" vaporized=""/>
    <tripinfo id="flow0.16" depart="73.40" departLane="end1_junction_0" departPos="4.10" departSpeed="0.00" departDelay="57.40" arrival="126.10" arrivalLane="junction_end4_0" arrivalPos="486.40" arrivalSpeed="33.33" duration="52.70" routeLength="977.73" waitingTime="0.00" waitingCount="0" stopTime="0.00" timeLoss="22.91" rerouteNo="0" devices="tripinfo_flow0.16" vType="vtypeauto" speedFactor="1.95" vaporized=""/>
    <tripinfo id="flow0.17" depart="76.80" departLane="end1_junction_0" departPos="4.10" departSpeed="0.00" departDelay="59.80" arrival="130.90" arrivalLane="junction_end4_0" arrivalPos="486.40" arrivalSpeed="33.23" duration="54.10" routeLength="977.73" waitingTime="0.00" waitingCount="0" stopTime="0.00" timeLoss="24.25" rerouteNo="0" devices="tripinfo_flow0.17" vType="vtypeauto" speedFactor="1.93" vaporized=""/>
    <tripinfo id="flow0.18" depart="80.40" departLane="end1_junction_0" departPos="4.10" departSpeed="0.00" departDelay="62.40" arrival="135.00" arrivalLane="junction_end4_0" arrivalPos="486.40" arrivalSpeed="33.25" duration="54.60" routeLength="977.73" waitingTime="0.00" waitingCount="0" stopTime="0.00" timeLoss="24.78" rerouteNo="0" devices="tripinfo_flow0.18" vType="vtypeauto" speedFactor="1.99" vaporized=""/>
    <tripinfo id="flow0.19" depart="84.00" departLane="end1_junction_0" departPos="4.10" departSpeed="0.00" departDelay="65.00" arrival="138.80" arrivalLane="junction_end4_0" arrivalPos="486.40" arrivalSpeed="33.29" duration="54.80" routeLength="977.73" waitingTime="0.00" waitingCount="0" stopTime="0.00" timeLoss="25.01" rerouteNo="0" devices="tripinfo_flow0.19" vType="vtypeauto" speedFactor="1.96" vaporized=""/>
    <tripinfo id="flow2.1" depart="7.50" departLane="end1_junction_0" departPos="4.10" departSpeed="0.00" departDelay="6.50" arrival="140.00" arrivalLane="junction_end2_0" arrivalPos="486.40" arrivalSpeed="13.89" duration="132.50" routeLength="993.21" waitingTime="49.50" waitingCount="1" stopTime="0.00" timeLoss="81.13" rerouteNo="0" devices="tripinfo_flow2.1" vType="vtypeauto@flow2.1" speedFactor="0.35" vaporized=""/>
    <tripinfo id="flow2.2" depart="14.20" departLane="end1_junction_0" departPos="4.10" departSpeed="0.00" departDelay="12.20" arrival="142.80" arrivalLane="junction_end2_1" arrivalPos="486.40" arrivalSpeed="13.99" duration="128.60" routeLength="993.21" waitingTime="42.40" waitingCount="1" stopTime="0.00" timeLoss="76.94" rerouteNo="0" devices="tripinfo_flow2.2" vType="vtypeauto@flow2.2" speedFactor="0.35" vaporized=""/>
    <tripinfo id="flow0.20" depart="88.90" departLane="end1_junction_0" departPos="4.10" departSpeed="0.00" departDelay="68.90" arrival="143.40" arrivalLane="junction_end4_0" arrivalPos="486.40" arrivalSpeed="33.27" duration="54.50" routeLength="977.73" waitingTime="0.00" waitingCount="0" stopTime="0.00" timeLoss="24.58" rerouteNo="0" devices="tripinfo_flow0.20" vType="vtypeauto" speedFactor="1.73" vaporized=""/>
    <tripinfo id="flow2.3" depart="18.50" departLane="end1_junction_0" departPos="4.10" departSpeed="0.00" departDelay="15.50" arrival="145.00" arrivalLane="junction_end2_0" arrivalPos="486.40" arrivalSpeed="13.98" duration="126.50" routeLength="993.21" waitingTime="36.30" waitingCount="1" stopTime="0.00" timeLoss="74.61" rerouteNo="0" devices="tripinfo_flow2.3" vType="vtypeauto@flow2.3" speedFactor="0.35" vaporized=""/>
    <tripinfo id="flow2.4" depart="21.10" departLane="end1_junction_0" departPos="4.10" departSpeed="0.00" departDelay="17.10" arrival="146.10" arrivalLane="junction_end2_2" arrivalPos="486.40" arrivalSpeed="13.99" duration="125.00" routeLength="993.21" waitingTime="30.40" waitingCount="1" stopTime="0.00" timeLoss="72.86" rerouteNo="0" devices="tripinfo_flow2.4" vType="vtypeauto@flow2.4" speedFactor="0.35" vaporized=""/>
    <tripinfo id="flow0.21" depart="93.90" departLane="end1_junction_0" departPos="4.10" departSpeed="0.00" departDelay="72.90" arrival="148.10" arrivalLane="junction_end4_0" arrivalPos="486.40" arrivalSpeed="33.31" duration="54.20" routeLength="977.73" waitingTime="0.00" waitingCount="0" stopTime="0.00" timeLoss="24.31" rerouteNo="0" devices="tripinfo_flow0.21" vType="vtypeauto" speedFactor="1.96" vaporized=""/>
    <tripinfo id="flow2.5" depart="26.80" departLane="end1_junction_0" departPos="4.10" departSpeed="0.00" departDelay="21.80" arrival="148.50" arrivalLane="junction_end2_0" arrivalPos="486.40" arrivalSpeed="13.95" duration="121.70" routeLength="993.21" waitingTime="25.00" waitingCount="1" stopTime="0.00" timeLoss="69.21" rerouteNo="0" devices="tripinfo_flow2.5" vType="vtypeauto@flow2.5" speedFactor="0.35" vaporized=""/>
    <tripinfo id="flow2.6" depart="30.40" departLane="end1_junction_0" departPos="4.10" departSpeed="0.00" departDelay="24.40" arrival="149.60" arrivalLane="junction_end2_2" arrivalPos="486.40" arrivalSpeed="13.99" duration="119.20" routeLength="993.21" waitingTime="19.80" waitingCount="1" stopTime="0.00" timeLoss="66.46" rerouteNo="0" devices="tripinfo_flow2.6" vType="vtypeauto@flow2.6" speedFactor="0.35" vaporized=""/>
    <tripinfo id="flow2.7" depart="33.00" departLane="end1_junction_0" departPos="4.10" departSpeed="0.00" departDelay="26.00" arrival="149.80" arrivalLane="junction_end2_1" arrivalPos="486.40" arrivalSpeed="13.91" duration="116.80" routeLength="993.21" waitingTime="14.60" waitingCount="1" stopTime="0.00" timeLoss="63.78" rerouteNo="0" devices="tripinfo_flow2.7" vType="vtypeauto@flow2.7" speedFactor="0.35" vaporized=""/>
    <tripinfo id="flow2.9" depart="41.40" departLane="end1_junction_0" departPos="4.10" departSpeed="0.00" departDelay="32.40" arrival="151.40" arrivalLane="junction_end2_0" arrivalPos="486.40" arrivalSpeed="19.37" duration="110.00" routeLength="993.21" waitingTime="4.80" waitingCount="1" stopTime="0.00" timeLoss="76.59" rerouteNo="0" devices="tripinfo_flow2.9" vType="vtypeauto@flow2.9" speedFactor="1.35" vaporized=""/>
    <tripinfo id="flow2.10" depart="47.70" departLane="end1_junction_0" departPos="4.10" departSpeed="0.00" departDelay="37.70" arrival="152.80" arrivalLane="junction_end2_1" arrivalPos="486.40" arrivalSpeed="18.13" duration="105.10" routeLength="993.21" waitingTime="0.10" waitingCount="1" stopTime="0.00" timeLoss="74.79" rerouteNo="0" devices="tripinfo_flow2.10" vType="vtypeauto" speedFactor="1.91" vaporized=""/>
    <tripinfo id="flow2.8" depart="36.50" departLane="end1_junction_0" departPos="4.10" departSpeed="0.00" departDelay="28.50" arrival="153.00" arrivalLane="junction_end2_2" arrivalPos="486.40" arrivalSpeed="13.97" duration="116.50" routeLength="993.21" waitingTime="9.60" waitingCount="1" stopTime="0.00" timeLoss="63.26" rerouteNo="0" devices="tripinfo_flow2.8" vType="vtypeauto@flow2.8" speedFactor="0.35" vaporized=""/>
    <tripinfo id="flow0.22" depart="99.30" departLane="end1_junction_0" departPos="4.10" departSpeed="0.00" departDelay="77.30" arrival="153.10" arrivalLane="junction_end4_0" arrivalPos="486.40" arrivalSpeed="33.29" duration="53.80" routeLength="977.73" waitingTime="0.00" waitingCount="0" stopTime="0.00" timeLoss="23.91" rerouteNo="0" devices="tripinfo_flow0.22" vType="vtypeauto" speedFactor="1.88" vaporized=""/>
    <tripinfo id="flow2.11" depart="53.50" departLane="end1_junction_0" departPos="4.10" departSpeed="0.00" departDelay="42.50" arrival="155.10" arrivalLane="junction_end2_0" arrivalPos="486.40" arrivalSpeed="22.17" duration="101.60" routeLength="993.21" waitingTime="0.00" waitingCount="0" stopTime="0.00" timeLoss="71.28" rerouteNo="0" devices="tripinfo_flow2.11" vType="vtypeauto" speedFactor="1.94" vaporized=""/>
    <tripinfo id="flow2.12" depart="56.10" departLane="end1_junction_0" departPos="4.10" departSpeed="0.00" departDelay="44.10" arrival="155.90" arrivalLane="junction_end2_2" arrivalPos="486.40" arrivalSpeed="19.31" duration="99.80" routeLength="993.21" waitingTime="0.00" waitingCount="0" stopTime="0.00" timeLoss="69.52" rerouteNo="0" devices="tripinfo_flow2.12" vType="vtypeauto" speedFactor="1.98" vaporized=""/>
    <tripinfo id="flow0.23" depart="104.40" departLane="end1_junction_0" departPos="4.10" departSpeed="0.00" departDelay="81.40" arrival="158.20" arrivalLane="junction_end4_0" arrivalPos="486.40" arrivalSpeed="33.22" duration="53.80" routeLength="977.73" waitingTime="0.00" waitingCount="0" stopTime="0.00" timeLoss="23.99" rerouteNo="0" devices="tripinfo_flow0.23" vType="vtypeauto" speedFactor="1.98" vaporized=""/>
    <tripinfo id="flow2.13" depart="59.80" departLane="end1_junction_0" departPos="4.10" departSpeed="0.00" departDelay="46.80" arrival="158.60" arrivalLane="junction_end2_2" arrivalPos="486.40" arrivalSpeed="22.00" duration="98.80" routeLength="993.21" waitingTime="0.00" waitingCount="0" stopTime="0.00" timeLoss="68.53" rerouteNo="0" devices="tripinfo_flow2.13" vType="vtypeauto" speedFactor="1.98" vaporized=""/>
    <tripinfo id="flow2.14" depart="64.80" departLane="end1_junction_0" departPos="4.10" departSpeed="0.00" departDelay="50.80" arrival="160.00" arrivalLane="junction_end2_1" arrivalPos="486.40" arrivalSpeed="24.37" duration="95.20" routeLength="993.21" waitingTime="0.00" waitingCount="0" stopTime="0.00" timeLoss="64.84" rerouteNo="0" devices="tripinfo_flow2.14" vType="vtypeauto" speedFactor="1.92" vaporized=""/>
    <tripinfo id="flow2.15" depart="71.00" departLane="end1_junction_0" departPos="4.10" departSpeed="0.00" departDelay="56.00" arrival="161.30" arrivalLane="junction_end2_2" arrivalPos="486.40" arrivalSpeed="24.87" duration="90.30" routeLength="993.21" waitingTime="0.00" waitingCount="0" stopTime="0.00" timeLoss="60.00" rerouteNo="0" devices="tripinfo_flow2.15" vType="vtypeauto" speedFactor="1.97" vaporized=""/>
    <tripinfo id="flow0.24" depart="107.80" departLane="end1_junction_0" departPos="4.10" departSpeed="0.00" departDelay="83.80" arrival="162.30" arrivalLane="junction_end4_0" arrivalPos="486.40" arrivalSpeed="33.29" duration="54.50" routeLength="977.73" waitingTime="0.00" waitingCount="0" stopTime="0.00" timeLoss="24.58" rerouteNo="0" devices="tripinfo_flow0.24" vType="vtypeauto" speedFactor="1.89" vaporized=""/>
    <tripinfo id="flow2.16" depart="76.70" departLane="end1_junction_0" departPos="4.10" departSpeed="0.00" departDelay="60.70" arrival="163.40" arrivalLane="junction_end2_1" arrivalPos="486.40" arrivalSpeed="28.51" duration="86.70" routeLength="993.21" waitingTime="0.00" waitingCount="0" stopTime="0.00" timeLoss="56.42" rerouteNo="0" devices="tripinfo_flow2.16" vType="vtypeauto" speedFactor="1.96" vaporized=""/>
    <tripinfo id="flow2.17" depart="80.30" departLane="end1_junction_0" departPos="4.10" departSpeed="0.00" departDelay="63.30" arrival="164.10" arrivalLane="junction_end2_2" arrivalPos="486.40" arrivalSpeed="28.71" duration="83.80" routeLength="993.21" waitingTime="0.00" waitingCount="0" stopTime="0.00" timeLoss="53.45" rerouteNo="0" devices="tripinfo_flow2.17" vType="vtypeauto" speedFactor="1.92" vaporized=""/>
    <tripinfo id="flow2.18" depart="82.90" departLane="end1_junction_0" departPos="4.10" departSpeed="0.00" departDelay="64.90" arrival="166.40" arrivalLane="junction_end2_1" arrivalPos="486.40" arrivalSpeed="31.88" duration="83.50" routeLength="993.21" waitingTime="0.00" waitingCount="0" stopTime="0.00" timeLoss="53.05" rerouteNo="0" devices="tripinfo_flow2.18" vType="vtypeauto" speedFactor="1.82" vaporized=""/>
    <tripinfo id="flow0.25" depart="112.60" departLane="end1_junction_0" departPos="4.10" departSpeed="0.00" departDelay="87.60" arrival="166.90" arrivalLane="junction_end4_0" arrivalPos="486.40" arrivalSpeed="33.33" duration="54.30" routeLength="977.73" waitingTime="0.00" waitingCount="0" stopTime="0.00" timeLoss="24.44" rerouteNo="0" devices="tripinfo_flow0.25" vType="vtypeauto" speedFactor="1.94" vaporized=""/>
    <tripinfo id="flow2.19" depart="86.50" departLane="end1_junction_0" departPos="4.10" departSpeed="0.00" departDelay="67.50" arrival="167.30" arrivalLane="junction_end2_2" arrivalPos="486.40" arrivalSpeed="33.22" duration="80.80" routeLength="993.21" waitingTime="0.00" waitingCount="0" stopTime="0.00" timeLoss="50.43" rerouteNo="0" devices="tripinfo_flow2.19" vType="vtypeauto" speedFactor="1.94" vaporized=""/>
    <tripinfo id="flow0.26" depart="118.10" departLane="end1_junction_0" departPos="4.10" departSpeed="0.00" departDelay="92.10" arrival="170.80" arrivalLane="junction_end4_0" arrivalPos="486.40" arrivalSpeed="33.25" duration="52.70" routeLength="977.73" waitingTime="0.00" waitingCount="0" stopTime="0.00" timeLoss="22.84" rerouteNo="0" devices="tripinfo_flow0.26" vType="vtypeauto" speedFactor="1.97" vaporized=""/>
    <tripinfo id="flow0.27" depart="123.10" departLane="end1_junction_0" departPos="4.10" departSpeed="0.00" departDelay="96.10" arrival="176.30" arrivalLane="junction_end4_0" arrivalPos="486.40" arrivalSpeed="33.21" duration="53.20" routeLength="977.73" waitingTime="0.00" waitingCount="0" stopTime="0.00" timeLoss="23.34" rerouteNo="0" devices="tripinfo_flow0.27" vType="vtypeauto" speedFactor="1.93" vaporized=""/>
    <tripinfo id="flow0.28" depart="128.30" departLane="end1_junction_0" departPos="4.10" departSpeed="0.00" departDelay="100.30" arrival="189.60" arrivalLane="junction_end4_0" arrivalPos="486.40" arrivalSpeed="33.27" duration="61.30" routeLength="977.73" waitingTime="0.00" waitingCount="0" stopTime="0.00" timeLoss="31.47" rerouteNo="0" devices="tripinfo_flow0.28" vType="vtypeauto" speedFactor="1.87" vaporized=""/>
    <tripinfo id="flow0.30" depart="135.30" departLane="end1_junction_0" departPos="4.10" departSpeed="0.00" departDelay="105.30" arrival="193.50" arrivalLane="junction_end4_0" arrivalPos="486.40" arrivalSpeed="33.32" duration="58.20" routeLength="977.73" waitingTime="0.00" waitingCount="0" stopTime="0.00" timeLoss="28.39" rerouteNo="0" devices="tripinfo_flow0.30" vType="vtypeauto" speedFactor="1.98" vaporized=""/>
    <tripinfo id="flow0.31" depart="140.20" departLane="end1_junction_0" departPos="4.10" departSpeed="0.00" departDelay="109.20" arrival="197.50" arrivalLane="junction_end4_0" arrivalPos="486.40" arrivalSpeed="33.26" duration="57.30" routeLength="977.73" waitingTime="0.00" waitingCount="0" stopTime="0.00" timeLoss="27.42" rerouteNo="0" devices="tripinfo_flow0.31" vType="vtypeauto" speedFactor="1.91" vaporized=""/>
    <tripinfo id="flow0.29" depart="131.70" departLane="end1_junction_0" departPos="4.10" departSpeed="0.00" departDelay="102.70" arrival="200.80" arrivalLane="junction_end4_0" arrivalPos="486.40" arrivalSpeed="33.28" duration="69.10" routeLength="977.73" waitingTime="0.00" waitingCount="0" stopTime="0.00" timeLoss="39.22" rerouteNo="0" devices="tripinfo_flow0.29" vType="vtypeauto" speedFactor="1.87" vaporized=""/>
    <tripinfo id="flow0.32" depart="145.70" departLane="end1_junction_0" departPos="4.10" departSpeed="0.00" departDelay="113.70" arrival="204.70" arrivalLane="junction_end4_0" arrivalPos="486.40" arrivalSpeed="33.29" duration="59.00" routeLength="977.73" waitingTime="0.00" waitingCount="0" stopTime="0.00" timeLoss="29.20" rerouteNo="0" devices="tripinfo_flow0.32" vType="vtypeauto" speedFactor="1.97" vaporized=""/>
    <tripinfo id="flow0.34" depart="154.30" departLane="end1_junction_0" departPos="4.10" departSpeed="0.00" departDelay="120.30" arrival="208.90" arrivalLane="junction_end4_0" arrivalPos="486.40" arrivalSpeed="33.21" duration="54.60" routeLength="977.73" waitingTime="0.00" waitingCount="0" stopTime="0.00" timeLoss="24.78" rerouteNo="0" devices="tripinfo_flow0.34" vType="vtypeauto" speedFactor="1.95" vaporized=""/>
    <tripinfo id="flow0.33" depart="150.90" departLane="end1_junction_0" departPos="4.10" departSpeed="0.00" departDelay="117.90" arrival="212.90" arrivalLane="junction_end4_0" arrivalPos="486.40" arrivalSpeed="33.27" duration="62.00" routeLength="977.73" waitingTime="0.00" waitingCount="0" stopTime="0.00" timeLoss="32.18" rerouteNo="0" devices="tripinfo_flow0.33" vType="vtypeauto" speedFactor="1.91" vaporized=""/>