<?xml version="1.0" encoding="UTF-8"?>

<!-- generated on 2024-04-13 19:33:30 by Eclipse SUMO GUI Version 1.19.0
<configuration xmlns:xsi="http://www.w3.org/2001/XMLSchema-instance" xsi:noNamespaceSchemaLocation="http://sumo.dlr.de/xsd/sumoConfiguration.xsd">

    <input>
        <net-file value="sim_cfg/intelligent_traffic.net.xml"/>
        <route-files value="sim_cfg/intelligent_traffic.rou.xml"/>
    </input>

    <output>
        <tripinfo-output value="sim_cfg/tripinfo.xml"/>
    </output>

    <time>
        <begin value="0"/>
        <end value="500"/>
        <step-length value="0.1"/>
    </time>

    <traci_server>
        <remote-port value="50394"/>
    </traci_server>

    <gui_only>
        <gui-settings-file value="sim_cfg/gui_settings.xml"/>
    </gui_only>

</configuration>
-->

<tripinfos xmlns:xsi="http://www.w3.org/2001/XMLSchema-instance" xsi:noNamespaceSchemaLocation="http://sumo.dlr.de/xsd/tripinfo_file.xsd">
    <tripinfo id="flow1.1" depart="11.80" departLane="end1_junction_0" departPos="4.10" departSpeed="0.00" departDelay="1.80" arrival="38.40" arrivalLane="junction_end3_1" arrivalPos="486.40" arrivalSpeed="77.70" duration="26.60" routeLength="995.90" waitingTime="0.00" waitingCount="0" stopTime="0.00" timeLoss="-44.69" rerouteNo="0" devices="tripinfo_flow1.1" vType="auto" speedFactor="0.35" vaporized=""/>
