<?xml version="1.0" encoding="UTF-8"?>

<!-- generated on 2024-05-08 12:45:16 by Eclipse SUMO GUI Version 1.19.0
<configuration xmlns:xsi="http://www.w3.org/2001/XMLSchema-instance" xsi:noNamespaceSchemaLocation="http://sumo.dlr.de/xsd/sumoConfiguration.xsd">

    <input>
        <net-file value="sim_cfg/intelligent_traffic.net.xml"/>
        <route-files value="sim_cfg/intelligent_traffic.rou.xml"/>
    </input>

    <output>
        <tripinfo-output value="sim_cfg/tripinfo.xml"/>
    </output>

    <time>
        <begin value="0"/>
        <end value="500"/>
        <step-length value="0.1"/>
    </time>

    <traci_server>
        <remote-port value="49478"/>
    </traci_server>

    <gui_only>
        <gui-settings-file value="sim_cfg/gui_settings.xml"/>
    </gui_only>

</configuration>
-->

<tripinfos xmlns:xsi="http://www.w3.org/2001/XMLSchema-instance" xsi:noNamespaceSchemaLocation="http://sumo.dlr.de/xsd/tripinfo_file.xsd">
    <tripinfo id="flow0.0" depart="0.00" departLane="end1_junction_0" departPos="4.10" departSpeed="0.00" departDelay="0.00" arrival="45.20" arrivalLane="junction_end4_0" arrivalPos="486.40" arrivalSpeed="35.98" duration="45.20" routeLength="977.73" waitingTime="0.00" waitingCount="0" stopTime="0.00" timeLoss="16.99" rerouteNo="0" devices="tripinfo_flow0.0" vType="auto" speedFactor="1.06" vaporized=""/>
    <tripinfo id="flow0.1" depart="4.90" departLane="end1_junction_0" departPos="4.10" departSpeed="0.00" departDelay="3.90" arrival="51.10" arrivalLane="junction_end4_0" arrivalPos="486.40" arrivalSpeed="35.89" duration="46.20" routeLength="977.73" waitingTime="0.00" waitingCount="0" stopTime="0.00" timeLoss="17.94" rerouteNo="0" devices="tripinfo_flow0.1" vType="auto" speedFactor="1.08" vaporized=""/>
    <tripinfo id="flow0.2" depart="9.90" departLane="end1_junction_0" departPos="4.10" departSpeed="0.00" departDelay="7.90" arrival="57.00" arrivalLane="junction_end4_0" arrivalPos="486.40" arrivalSpeed="35.99" duration="47.10" routeLength="977.73" waitingTime="0.00" waitingCount="0" stopTime="0.00" timeLoss="18.74" rerouteNo="0" devices="tripinfo_flow0.2" vType="auto" speedFactor="1.05" vaporized=""/>
    <tripinfo id="flow0.3" depart="14.80" departLane="end1_junction_0" departPos="4.10" departSpeed="0.00" departDelay="11.80" arrival="62.80" arrivalLane="junction_end4_0" arrivalPos="486.40" arrivalSpeed="34.16" duration="48.00" routeLength="977.73" waitingTime="0.00" waitingCount="0" stopTime="0.00" timeLoss="18.14" rerouteNo="0" devices="tripinfo_flow0.3" vType="auto" speedFactor="0.86" vaporized=""/>
    <tripinfo id="flow1.0" depart="2.40" departLane="end1_junction_0" departPos="4.10" departSpeed="0.00" departDelay="2.40" arrival="66.60" arrivalLane="junction_end3_1" arrivalPos="486.40" arrivalSpeed="35.96" duration="64.20" routeLength="995.90" waitingTime="16.20" waitingCount="1" stopTime="0.00" timeLoss="36.53" rerouteNo="0" devices="tripinfo_flow1.0" vType="auto@flow1.0" speedFactor="0.94" vaporized=""/>
    <tripinfo id="flow0.4" depart="19.60" departLane="end1_junction_0" departPos="4.10" departSpeed="0.00" departDelay="15.60" arrival="66.90" arrivalLane="junction_end4_0" arrivalPos="486.40" arrivalSpeed="35.98" duration="47.30" routeLength="977.73" waitingTime="0.00" waitingCount="0" stopTime="0.00" timeLoss="19.00" rerouteNo="0" devices="tripinfo_flow0.4" vType="auto" speedFactor="1.05" vaporized=""/>
    <tripinfo id="flow1.3" depart="17.10" departLane="end1_junction_0" departPos="4.10" departSpeed="0.00" departDelay="14.10" arrival="71.50" arrivalLane="junction_end3_2" arrivalPos="486.40" arrivalSpeed="35.93" duration="54.40" routeLength="995.90" waitingTime="0.00" waitingCount="0" stopTime="0.00" timeLoss="26.73" rerouteNo="0" devices="tripinfo_flow1.3" vType="auto" speedFactor="1.09" vaporized=""/>
    <tripinfo id="flow0.5" depart="24.50" departLane="end1_junction_0" departPos="4.10" departSpeed="0.00" departDelay="19.50" arrival="72.80" arrivalLane="junction_end4_0" arrivalPos="486.40" arrivalSpeed="35.88" duration="48.30" routeLength="977.73" waitingTime="0.00" waitingCount="0" stopTime="0.00" timeLoss="19.81" rerouteNo="0" devices="tripinfo_flow0.5" vType="auto" speedFactor="0.93" vaporized=""/>
    <tripinfo id="flow1.5" depart="27.00" departLane="end1_junction_0" departPos="4.10" departSpeed="0.00" departDelay="22.00" arrival="72.80" arrivalLane="junction_end3_2" arrivalPos="486.40" arrivalSpeed="35.02" duration="45.80" routeLength="995.90" waitingTime="0.00" waitingCount="0" stopTime="0.00" timeLoss="17.37" rerouteNo="0" devices="tripinfo_flow1.5" vType="auto" speedFactor="0.88" vaporized=""/>
    <tripinfo id="flow1.4" depart="22.00" departLane="end1_junction_0" departPos="4.10" departSpeed="0.00" departDelay="18.00" arrival="75.50" arrivalLane="junction_end3_2" arrivalPos="486.40" arrivalSpeed="35.96" duration="53.50" routeLength="995.90" waitingTime="0.00" waitingCount="0" stopTime="0.00" timeLoss="25.79" rerouteNo="0" devices="tripinfo_flow1.4" vType="auto" speedFactor="1.12" vaporized=""/>
    <tripinfo id="flow1.6" depart="31.90" departLane="end1_junction_0" departPos="4.10" departSpeed="0.00" departDelay="25.90" arrival="76.60" arrivalLane="junction_end3_2" arrivalPos="486.40" arrivalSpeed="35.92" duration="44.70" routeLength="995.90" waitingTime="0.00" waitingCount="0" stopTime="0.00" timeLoss="16.98" rerouteNo="0" devices="tripinfo_flow1.6" vType="auto" speedFactor="1.16" vaporized=""/>
    <tripinfo id="flow0.6" depart="29.50" departLane="end1_junction_0" departPos="4.10" departSpeed="0.00" departDelay="23.50" arrival="78.00" arrivalLane="junction_end4_0" arrivalPos="486.40" arrivalSpeed="36.00" duration="48.50" routeLength="977.73" waitingTime="0.00" waitingCount="0" stopTime="0.00" timeLoss="20.09" rerouteNo="0" devices="tripinfo_flow0.6" vType="auto" speedFactor="0.94" vaporized=""/>
    <tripinfo id="flow1.7" depart="36.80" departLane="end1_junction_0" departPos="4.10" departSpeed="0.00" departDelay="29.80" arrival="80.10" arrivalLane="junction_end3_2" arrivalPos="486.40" arrivalSpeed="35.98" duration="43.30" routeLength="995.90" waitingTime="0.00" waitingCount="0" stopTime="0.00" timeLoss="15.54" rerouteNo="0" devices="tripinfo_flow1.7" vType="auto" speedFactor="0.97" vaporized=""/>
    <tripinfo id="flow0.7" depart="34.40" departLane="end1_junction_0" departPos="4.10" departSpeed="0.00" departDelay="27.40" arrival="81.70" arrivalLane="junction_end4_0" arrivalPos="486.40" arrivalSpeed="35.88" duration="47.30" routeLength="977.73" waitingTime="0.00" waitingCount="0" stopTime="0.00" timeLoss="18.97" rerouteNo="0" devices="tripinfo_flow0.7" vType="auto" speedFactor="1.01" vaporized=""/>
    <tripinfo id="flow1.1" depart="7.40" departLane="end1_junction_0" departPos="4.10" departSpeed="0.00" departDelay="6.40" arrival="84.00" arrivalLane="junction_end3_1" arrivalPos="486.40" arrivalSpeed="13.89" duration="76.60" routeLength="995.90" waitingTime="7.00" waitingCount="1" stopTime="0.00" timeLoss="26.22" rerouteNo="0" devices="tripinfo_flow1.1" vType="auto@flow1.1" speedFactor="0.35" vaporized=""/>
    <tripinfo id="flow1.2" depart="12.30" departLane="end1_junction_0" departPos="4.10" departSpeed="0.00" departDelay="10.30" arrival="84.60" arrivalLane="junction_end3_0" arrivalPos="486.40" arrivalSpeed="13.99" duration="72.30" routeLength="995.90" waitingTime="2.10" waitingCount="1" stopTime="0.00" timeLoss="21.45" rerouteNo="0" devices="tripinfo_flow1.2" vType="auto@flow1.2" speedFactor="0.35" vaporized=""/>
    <tripinfo id="flow1.8" depart="41.70" departLane="end1_junction_0" departPos="4.10" departSpeed="0.00" departDelay="33.70" arrival="86.00" arrivalLane="junction_end3_1" arrivalPos="486.40" arrivalSpeed="30.02" duration="44.30" routeLength="995.90" waitingTime="0.00" waitingCount="0" stopTime="0.00" timeLoss="15.73" rerouteNo="0" devices="tripinfo_flow1.8" vType="auto" speedFactor="0.87" vaporized=""/>
    <tripinfo id="flow0.8" depart="39.30" departLane="end1_junction_0" departPos="4.10" departSpeed="0.00" departDelay="31.30" arrival="87.80" arrivalLane="junction_end4_0" arrivalPos="486.40" arrivalSpeed="32.91" duration="48.50" routeLength="977.73" waitingTime="0.00" waitingCount="0" stopTime="0.00" timeLoss="17.48" rerouteNo="0" devices="tripinfo_flow0.8" vType="auto" speedFactor="0.83" vaporized=""/>
    <tripinfo id="flow1.9" depart="46.50" departLane="end1_junction_0" departPos="4.10" departSpeed="0.00" departDelay="37.50" arrival="90.50" arrivalLane="junction_end3_1" arrivalPos="486.40" arrivalSpeed="35.99" duration="44.00" routeLength="995.90" waitingTime="0.00" waitingCount="0" stopTime="0.00" timeLoss="16.31" rerouteNo="0" devices="tripinfo_flow1.9" vType="auto" speedFactor="1.13" vaporized=""/>
    <tripinfo id="flow0.9" depart="44.10" departLane="end1_junction_0" departPos="4.10" departSpeed="0.00" departDelay="35.10" arrival="91.40" arrivalLane="junction_end4_0" arrivalPos="486.40" arrivalSpeed="35.98" duration="47.30" routeLength="977.73" waitingTime="0.00" waitingCount="0" stopTime="0.00" timeLoss="18.95" rerouteNo="0" devices="tripinfo_flow0.9" vType="auto" speedFactor="0.95" vaporized=""/>
    <tripinfo id="flow1.10" depart="51.40" departLane="end1_junction_0" departPos="4.10" departSpeed="0.00" departDelay="41.40" arrival="95.50" arrivalLane="junction_end3_1" arrivalPos="486.40" arrivalSpeed="35.92" duration="44.10" routeLength="995.90" waitingTime="0.00" waitingCount="0" stopTime="0.00" timeLoss="16.35" rerouteNo="0" devices="tripinfo_flow1.10" vType="auto" speedFactor="1.15" vaporized=""/>
    <tripinfo id="flow0.10" depart="49.00" departLane="end1_junction_0" departPos="4.10" departSpeed="0.00" departDelay="39.00" arrival="95.70" arrivalLane="junction_end4_0" arrivalPos="486.40" arrivalSpeed="35.94" duration="46.70" routeLength="977.73" waitingTime="0.00" waitingCount="0" stopTime="0.00" timeLoss="18.65" rerouteNo="0" devices="tripinfo_flow0.10" vType="auto" speedFactor="1.18" vaporized=""/>
    <tripinfo id="flow1.11" depart="56.30" departLane="end1_junction_0" departPos="4.10" departSpeed="0.00" departDelay="45.30" arrival="100.50" arrivalLane="junction_end3_1" arrivalPos="486.40" arrivalSpeed="35.98" duration="44.20" routeLength="995.90" waitingTime="0.00" waitingCount="0" stopTime="0.00" timeLoss="16.45" rerouteNo="0" devices="tripinfo_flow1.11" vType="auto" speedFactor="0.99" vaporized=""/>
    <tripinfo id="flow0.11" depart="53.90" departLane="end1_junction_0" departPos="4.10" departSpeed="0.00" departDelay="42.90" arrival="100.60" arrivalLane="junction_end4_0" arrivalPos="486.40" arrivalSpeed="35.95" duration="46.70" routeLength="977.73" waitingTime="0.00" waitingCount="0" stopTime="0.00" timeLoss="18.53" rerouteNo="0" devices="tripinfo_flow0.11" vType="auto" speedFactor="1.17" vaporized=""/>
    <tripinfo id="flow1.12" depart="61.20" departLane="end1_junction_0" departPos="4.10" departSpeed="0.00" departDelay="49.20" arrival="105.10" arrivalLane="junction_end3_1" arrivalPos="486.40" arrivalSpeed="35.90" duration="43.90" routeLength="995.90" waitingTime="0.00" waitingCount="0" stopTime="0.00" timeLoss="16.18" rerouteNo="0" devices="tripinfo_flow1.12" vType="auto" speedFactor="1.18" vaporized=""/>
    <tripinfo id="flow0.12" depart="58.80" departLane="end1_junction_0" departPos="4.10" departSpeed="0.00" departDelay="46.80" arrival="106.70" arrivalLane="junction_end4_0" arrivalPos="486.40" arrivalSpeed="35.99" duration="47.90" routeLength="977.73" waitingTime="0.00" waitingCount="0" stopTime="0.00" timeLoss="19.58" rerouteNo="0" devices="tripinfo_flow0.12" vType="auto" speedFactor="0.97" vaporized=""/>
    <tripinfo id="flow0.13" depart="63.70" departLane="end1_junction_0" departPos="4.10" departSpeed="0.00" departDelay="50.70" arrival="112.20" arrivalLane="junction_end4_0" arrivalPos="486.40" arrivalSpeed="35.96" duration="48.50" routeLength="977.73" waitingTime="0.00" waitingCount="0" stopTime="0.00" timeLoss="20.08" rerouteNo="0" devices="tripinfo_flow0.13" vType="auto" speedFactor="0.90" vaporized=""/>
    <tripinfo id="flow2.0" depart="2.50" departLane="end1_junction_0" departPos="4.10" departSpeed="0.00" departDelay="2.50" arrival="116.50" arrivalLane="junction_end2_2" arrivalPos="486.40" arrivalSpeed="35.95" duration="114.00" routeLength="993.21" waitingTime="63.10" waitingCount="1" stopTime="0.00" timeLoss="84.73" rerouteNo="0" devices="tripinfo_flow2.0" vType="auto@flow2.0" speedFactor="1.01" vaporized=""/>
    <tripinfo id="flow0.14" depart="68.60" departLane="end1_junction_0" departPos="4.10" departSpeed="0.00" departDelay="54.60" arrival="116.60" arrivalLane="junction_end4_0" arrivalPos="486.40" arrivalSpeed="35.98" duration="48.00" routeLength="977.73" waitingTime="0.00" waitingCount="0" stopTime="0.00" timeLoss="19.71" rerouteNo="0" devices="tripinfo_flow0.14" vType="auto" speedFactor="1.09" vaporized=""/>
    <tripinfo id="flow0.15" depart="73.40" departLane="end1_junction_0" departPos="4.10" departSpeed="0.00" departDelay="58.40" arrival="121.70" arrivalLane="junction_end4_0" arrivalPos="486.40" arrivalSpeed="35.99" duration="48.30" routeLength="977.73" waitingTime="0.00" waitingCount="0" stopTime="0.00" timeLoss="20.07" rerouteNo="0" devices="tripinfo_flow0.15" vType="auto" speedFactor="1.09" vaporized=""/>
    <tripinfo id="flow0.16" depart="78.30" departLane="end1_junction_0" departPos="4.10" departSpeed="0.00" departDelay="62.30" arrival="127.60" arrivalLane="junction_end4_0" arrivalPos="486.40" arrivalSpeed="35.04" duration="49.30" routeLength="977.73" waitingTime="0.00" waitingCount="0" stopTime="0.00" timeLoss="20.15" rerouteNo="0" devices="tripinfo_flow0.16" vType="auto" speedFactor="0.88" vaporized=""/>
    <tripinfo id="flow0.17" depart="83.20" departLane="end1_junction_0" departPos="4.10" departSpeed="0.00" departDelay="66.20" arrival="131.00" arrivalLane="junction_end4_0" arrivalPos="486.40" arrivalSpeed="35.93" duration="47.80" routeLength="977.73" waitingTime="0.00" waitingCount="0" stopTime="0.00" timeLoss="19.62" rerouteNo="0" devices="tripinfo_flow0.17" vType="auto" speedFactor="1.17" vaporized=""/>
    <tripinfo id="flow2.1" depart="7.50" departLane="end1_junction_0" departPos="4.10" departSpeed="0.00" departDelay="6.50" arrival="132.80" arrivalLane="junction_end2_0" arrivalPos="486.40" arrivalSpeed="13.88" duration="125.30" routeLength="993.21" waitingTime="54.10" waitingCount="1" stopTime="0.00" timeLoss="73.92" rerouteNo="0" devices="tripinfo_flow2.1" vType="auto@flow2.1" speedFactor="0.35" vaporized=""/>
    <tripinfo id="flow2.2" depart="12.40" departLane="end1_junction_0" departPos="4.10" departSpeed="0.00" departDelay="10.40" arrival="134.00" arrivalLane="junction_end2_1" arrivalPos="486.40" arrivalSpeed="13.94" duration="121.60" routeLength="993.21" waitingTime="49.70" waitingCount="1" stopTime="0.00" timeLoss="70.97" rerouteNo="0" devices="tripinfo_flow2.2" vType="auto@flow2.2" speedFactor="0.35" vaporized=""/>
    <tripinfo id="flow2.3" depart="17.20" departLane="end1_junction_0" departPos="4.10" departSpeed="0.00" departDelay="14.20" arrival="135.70" arrivalLane="junction_end2_0" arrivalPos="486.40" arrivalSpeed="13.92" duration="118.50" routeLength="993.21" waitingTime="44.90" waitingCount="1" stopTime="0.00" timeLoss="67.60" rerouteNo="0" devices="tripinfo_flow2.3" vType="auto@flow2.3" speedFactor="0.35" vaporized=""/>
    <tripinfo id="flow0.18" depart="88.10" departLane="end1_junction_0" departPos="4.10" departSpeed="0.00" departDelay="70.10" arrival="135.90" arrivalLane="junction_end4_0" arrivalPos="486.40" arrivalSpeed="35.94" duration="47.80" routeLength="977.73" waitingTime="0.00" waitingCount="0" stopTime="0.00" timeLoss="19.58" rerouteNo="0" devices="tripinfo_flow0.18" vType="auto" speedFactor="1.00" vaporized=""/>
    <tripinfo id="flow2.4" depart="22.10" departLane="end1_junction_0" departPos="4.10" departSpeed="0.00" departDelay="18.10" arrival="137.40" arrivalLane="junction_end2_0" arrivalPos="486.40" arrivalSpeed="13.96" duration="115.30" routeLength="993.21" waitingTime="40.30" waitingCount="1" stopTime="0.00" timeLoss="64.11" rerouteNo="0" devices="tripinfo_flow2.4" vType="auto@flow2.4" speedFactor="0.35" vaporized=""/>
    <tripinfo id="flow2.5" depart="27.10" departLane="end1_junction_0" departPos="4.10" departSpeed="0.00" departDelay="22.10" arrival="138.80" arrivalLane="junction_end2_1" arrivalPos="486.40" arrivalSpeed="13.91" duration="111.70" routeLength="993.21" waitingTime="37.20" waitingCount="1" stopTime="0.00" timeLoss="60.23" rerouteNo="0" devices="tripinfo_flow2.5" vType="auto@flow2.5" speedFactor="0.35" vaporized=""/>
    <tripinfo id="flow2.6" depart="32.00" departLane="end1_junction_0" departPos="4.10" departSpeed="0.00" departDelay="26.00" arrival="140.10" arrivalLane="junction_end2_0" arrivalPos="486.40" arrivalSpeed="13.96" duration="108.10" routeLength="993.21" waitingTime="30.40" waitingCount="1" stopTime="0.00" timeLoss="56.39" rerouteNo="0" devices="tripinfo_flow2.6" vType="auto@flow2.6" speedFactor="0.35" vaporized=""/>
    <tripinfo id="flow0.19" depart="93.00" departLane="end1_junction_0" departPos="4.10" departSpeed="0.00" departDelay="74.00" arrival="140.80" arrivalLane="junction_end4_0" arrivalPos="486.40" arrivalSpeed="35.94" duration="47.80" routeLength="977.73" waitingTime="0.00" waitingCount="0" stopTime="0.00" timeLoss="19.61" rerouteNo="0" devices="tripinfo_flow0.19" vType="auto" speedFactor="1.14" vaporized=""/>
    <tripinfo id="flow2.7" depart="36.90" departLane="end1_junction_0" departPos="4.10" departSpeed="0.00" departDelay="29.90" arrival="141.10" arrivalLane="junction_end2_1" arrivalPos="486.40" arrivalSpeed="13.97" duration="104.20" routeLength="993.21" waitingTime="26.20" waitingCount="1" stopTime="0.00" timeLoss="52.04" rerouteNo="0" devices="tripinfo_flow2.7" vType="auto@flow2.7" speedFactor="0.35" vaporized=""/>
    <tripinfo id="flow2.8" depart="41.80" departLane="end1_junction_0" departPos="4.10" departSpeed="0.00" departDelay="33.80" arrival="142.00" arrivalLane="junction_end2_0" arrivalPos="486.40" arrivalSpeed="14.00" duration="100.20" routeLength="993.21" waitingTime="21.30" waitingCount="1" stopTime="0.00" timeLoss="47.92" rerouteNo="0" devices="tripinfo_flow2.8" vType="auto@flow2.8" speedFactor="0.35" vaporized=""/>
    <tripinfo id="flow2.9" depart="46.60" departLane="end1_junction_0" departPos="4.10" departSpeed="0.00" departDelay="37.60" arrival="142.80" arrivalLane="junction_end2_1" arrivalPos="486.40" arrivalSpeed="13.90" duration="96.20" routeLength="993.21" waitingTime="16.40" waitingCount="1" stopTime="0.00" timeLoss="43.59" rerouteNo="0" devices="tripinfo_flow2.9" vType="auto@flow2.9" speedFactor="0.35" vaporized=""/>
    <tripinfo id="flow2.10" depart="51.50" departLane="end1_junction_0" departPos="4.10" departSpeed="0.00" departDelay="41.50" arrival="143.90" arrivalLane="junction_end2_0" arrivalPos="486.40" arrivalSpeed="13.94" duration="92.40" routeLength="993.21" waitingTime="12.10" waitingCount="1" stopTime="0.00" timeLoss="39.58" rerouteNo="0" devices="tripinfo_flow2.10" vType="auto@flow2.10" speedFactor="0.35" vaporized=""/>
    <tripinfo id="flow2.12" depart="61.30" departLane="end1_junction_0" departPos="4.10" departSpeed="0.00" departDelay="49.30" arrival="144.10" arrivalLane="junction_end2_1" arrivalPos="486.40" arrivalSpeed="16.01" duration="82.80" routeLength="993.21" waitingTime="2.40" waitingCount="1" stopTime="0.00" timeLoss="50.61" rerouteNo="0" devices="tripinfo_flow2.12" vType="auto@flow2.12" speedFactor="1.35" vaporized=""/>
    <tripinfo id="flow2.11" depart="56.40" departLane="end1_junction_0" departPos="4.10" departSpeed="0.00" departDelay="45.40" arrival="144.80" arrivalLane="junction_end2_2" arrivalPos="486.40" arrivalSpeed="13.97" duration="88.40" routeLength="993.21" waitingTime="7.10" waitingCount="1" stopTime="0.00" timeLoss="35.27" rerouteNo="0" devices="tripinfo_flow2.11" vType="auto@flow2.11" speedFactor="0.35" vaporized=""/>
    <tripinfo id="flow2.14" depart="71.00" departLane="end1_junction_0" departPos="4.10" departSpeed="0.00" departDelay="57.00" arrival="145.40" arrivalLane="junction_end2_1" arrivalPos="486.40" arrivalSpeed="17.57" duration="74.40" routeLength="993.21" waitingTime="0.00" waitingCount="0" stopTime="0.00" timeLoss="45.17" rerouteNo="0" devices="tripinfo_flow2.14" vType="auto" speedFactor="1.04" vaporized=""/>
    <tripinfo id="flow0.20" depart="97.90" departLane="end1_junction_0" departPos="4.10" departSpeed="0.00" departDelay="77.90" arrival="145.60" arrivalLane="junction_end4_0" arrivalPos="486.40" arrivalSpeed="35.93" duration="47.70" routeLength="977.73" waitingTime="0.00" waitingCount="0" stopTime="0.00" timeLoss="19.56" rerouteNo="0" devices="tripinfo_flow0.20" vType="auto" speedFactor="1.08" vaporized=""/>
    <tripinfo id="flow2.13" depart="66.20" departLane="end1_junction_0" departPos="4.10" departSpeed="0.00" departDelay="53.20" arrival="146.10" arrivalLane="junction_end2_2" arrivalPos="486.40" arrivalSpeed="16.10" duration="79.90" routeLength="993.21" waitingTime="0.00" waitingCount="0" stopTime="0.00" timeLoss="50.57" rerouteNo="0" devices="tripinfo_flow2.13" vType="auto" speedFactor="0.96" vaporized=""/>
    <tripinfo id="flow2.16" depart="80.80" departLane="end1_junction_0" departPos="4.10" departSpeed="0.00" departDelay="64.80" arrival="146.20" arrivalLane="junction_end2_0" arrivalPos="486.40" arrivalSpeed="19.09" duration="65.40" routeLength="993.21" waitingTime="0.00" waitingCount="0" stopTime="0.00" timeLoss="34.26" rerouteNo="0" devices="tripinfo_flow2.16" vType="auto" speedFactor="0.85" vaporized=""/>
    <tripinfo id="flow2.15" depart="75.90" departLane="end1_junction_0" departPos="4.10" departSpeed="0.00" departDelay="60.90" arrival="147.40" arrivalLane="junction_end2_2" arrivalPos="486.40" arrivalSpeed="17.95" duration="71.50" routeLength="993.21" waitingTime="0.00" waitingCount="0" stopTime="0.00" timeLoss="41.89" rerouteNo="0" devices="tripinfo_flow2.15" vType="auto" speedFactor="0.90" vaporized=""/>
    <tripinfo id="flow2.17" depart="85.70" departLane="end1_junction_0" departPos="4.10" departSpeed="0.00" departDelay="68.70" arrival="148.60" arrivalLane="junction_end2_2" arrivalPos="486.40" arrivalSpeed="19.07" duration="62.90" routeLength="993.21" waitingTime="0.00" waitingCount="0" stopTime="0.00" timeLoss="33.78" rerouteNo="0" devices="tripinfo_flow2.17" vType="auto" speedFactor="1.10" vaporized=""/>
    <tripinfo id="flow2.18" depart="90.60" departLane="end1_junction_0" departPos="4.10" departSpeed="0.00" departDelay="72.60" arrival="148.80" arrivalLane="junction_end2_1" arrivalPos="486.40" arrivalSpeed="19.33" duration="58.20" routeLength="993.21" waitingTime="0.00" waitingCount="0" stopTime="0.00" timeLoss="28.65" rerouteNo="0" devices="tripinfo_flow2.18" vType="auto" speedFactor="0.90" vaporized=""/>
    <tripinfo id="flow2.19" depart="95.50" departLane="end1_junction_0" departPos="4.10" departSpeed="0.00" departDelay="76.50" arrival="149.80" arrivalLane="junction_end2_2" arrivalPos="486.40" arrivalSpeed="20.40" duration="54.30" routeLength="993.21" waitingTime="0.00" waitingCount="0" stopTime="0.00" timeLoss="24.95" rerouteNo="0" devices="tripinfo_flow2.19" vType="auto" speedFactor="0.97" vaporized=""/>
    <tripinfo id="flow0.21" depart="102.80" departLane="end1_junction_0" departPos="4.10" departSpeed="0.00" departDelay="81.80" arrival="150.80" arrivalLane="junction_end4_0" arrivalPos="486.40" arrivalSpeed="35.90" duration="48.00" routeLength="977.73" waitingTime="0.00" waitingCount="0" stopTime="0.00" timeLoss="19.62" rerouteNo="0" devices="tripinfo_flow0.21" vType="auto" speedFactor="0.99" vaporized=""/>
    <tripinfo id="flow2.20" depart="100.40" departLane="end1_junction_0" departPos="4.10" departSpeed="0.00" departDelay="80.40" arrival="151.00" arrivalLane="junction_end2_2" arrivalPos="486.40" arrivalSpeed="22.39" duration="50.60" routeLength="993.21" waitingTime="0.00" waitingCount="0" stopTime="0.00" timeLoss="21.37" rerouteNo="0" devices="tripinfo_flow2.20" vType="auto" speedFactor="1.02" vaporized=""/>
    <tripinfo id="flow2.21" depart="105.30" departLane="end1_junction_0" departPos="4.10" departSpeed="0.00" departDelay="84.30" arrival="152.50" arrivalLane="junction_end2_2" arrivalPos="486.40" arrivalSpeed="28.40" duration="47.20" routeLength="993.21" waitingTime="0.00" waitingCount="0" stopTime="0.00" timeLoss="17.03" rerouteNo="0" devices="tripinfo_flow2.21" vType="auto" speedFactor="0.88" vaporized=""/>
    <tripinfo id="flow0.22" depart="107.70" departLane="end1_junction_0" departPos="4.10" departSpeed="0.00" departDelay="85.70" arrival="156.60" arrivalLane="junction_end4_0" arrivalPos="486.40" arrivalSpeed="35.88" duration="48.90" routeLength="977.73" waitingTime="0.00" waitingCount="0" stopTime="0.00" timeLoss="20.45" rerouteNo="0" devices="tripinfo_flow0.22" vType="auto" speedFactor="0.91" vaporized=""/>
    <tripinfo id="flow2.22" depart="110.20" departLane="end1_junction_0" departPos="4.10" departSpeed="0.00" departDelay="88.20" arrival="156.60" arrivalLane="junction_end2_2" arrivalPos="486.40" arrivalSpeed="35.99" duration="46.40" routeLength="993.21" waitingTime="0.00" waitingCount="0" stopTime="0.00" timeLoss="17.20" rerouteNo="0" devices="tripinfo_flow2.22" vType="auto" speedFactor="1.04" vaporized=""/>
    <tripinfo id="flow0.23" depart="112.60" departLane="end1_junction_0" departPos="4.10" departSpeed="0.00" departDelay="89.60" arrival="161.00" arrivalLane="junction_end4_0" arrivalPos="486.40" arrivalSpeed="35.97" duration="48.40" routeLength="977.73" waitingTime="0.00" waitingCount="0" stopTime="0.00" timeLoss="20.10" rerouteNo="0" devices="tripinfo_flow0.23" vType="auto" speedFactor="1.02" vaporized=""/>
    <tripinfo id="flow0.24" depart="117.50" departLane="end1_junction_0" departPos="4.10" departSpeed="0.00" departDelay="93.50" arrival="166.60" arrivalLane="junction_end4_0" arrivalPos="486.40" arrivalSpeed="35.94" duration="49.10" routeLength="977.73" waitingTime="0.00" waitingCount="0" stopTime="0.00" timeLoss="20.76" rerouteNo="0" devices="tripinfo_flow0.24" vType="auto" speedFactor="0.94" vaporized=""/>
    <tripinfo id="flow0.25" depart="122.40" departLane="end1_junction_0" departPos="4.10" departSpeed="0.00" departDelay="97.40" arrival="171.60" arrivalLane="junction_end4_0" arrivalPos="486.40" arrivalSpeed="36.00" duration="49.20" routeLength="977.73" waitingTime="0.00" waitingCount="0" stopTime="0.00" timeLoss="20.86" rerouteNo="0" devices="tripinfo_flow0.25" vType="auto" speedFactor="0.98" vaporized=""/>
    <tripinfo id="flow0.26" depart="127.30" departLane="end1_junction_0" departPos="4.10" departSpeed="0.00" departDelay="101.30" arrival="176.40" arrivalLane="junction_end4_0" arrivalPos="486.40" arrivalSpeed="35.95" duration="49.10" routeLength="977.73" waitingTime="0.00" waitingCount="0" stopTime="0.00" timeLoss="20.73" rerouteNo="0" devices="tripinfo_flow0.26" vType="auto" speedFactor="1.01" vaporized=""/>
    <tripinfo id="flow0.27" depart="132.10" departLane="end1_junction_0" departPos="4.10" departSpeed="0.00" departDelay="105.10" arrival="181.20" arrivalLane="junction_end4_0" arrivalPos="486.40" arrivalSpeed="35.92" duration="49.10" routeLength="977.73" waitingTime="0.00" waitingCount="0" stopTime="0.00" timeLoss="20.73" rerouteNo="0" devices="tripinfo_flow0.27" vType="auto" speedFactor="1.00" vaporized=""/>
    <tripinfo id="flow0.28" depart="137.00" departLane="end1_junction_0" departPos="4.10" departSpeed="0.00" departDelay="109.00" arrival="185.90" arrivalLane="junction_end4_0" arrivalPos="486.40" arrivalSpeed="35.93" duration="48.90" routeLength="977.73" waitingTime="0.00" waitingCount="0" stopTime="0.00" timeLoss="20.79" rerouteNo="0" devices="tripinfo_flow0.28" vType="auto" speedFactor="1.15" vaporized=""/>
    <tripinfo id="flow0.29" depart="141.90" departLane="end1_junction_0" departPos="4.10" departSpeed="0.00" departDelay="112.90" arrival="191.00" arrivalLane="junction_end4_0" arrivalPos="486.40" arrivalSpeed="35.97" duration="49.10" routeLength="977.73" waitingTime="0.00" waitingCount="0" stopTime="0.00" timeLoss="20.86" rerouteNo="0" devices="tripinfo_flow0.29" vType="auto" speedFactor="1.04" vaporized=""/>
    <tripinfo id="flow0.30" depart="146.80" departLane="end1_junction_0" departPos="4.10" departSpeed="0.00" departDelay="116.80" arrival="197.20" arrivalLane="junction_end4_0" arrivalPos="486.40" arrivalSpeed="35.94" duration="50.40" routeLength="977.73" waitingTime="0.00" waitingCount="0" stopTime="0.00" timeLoss="22.11" rerouteNo="0" devices="tripinfo_flow0.30" vType="auto" speedFactor="1.02" vaporized=""/>
    <tripinfo id="flow0.31" depart="151.70" departLane="end1_junction_0" departPos="4.10" departSpeed="0.00" departDelay="120.70" arrival="202.00" arrivalLane="junction_end4_0" arrivalPos="486.40" arrivalSpeed="35.99" duration="50.30" routeLength="977.73" waitingTime="0.00" waitingCount="0" stopTime="0.00" timeLoss="21.82" rerouteNo="0" devices="tripinfo_flow0.31" vType="auto" speedFactor="0.92" vaporized=""/>
    <tripinfo id="flow0.32" depart="156.60" departLane="end1_junction_0" departPos="4.10" departSpeed="0.00" departDelay="124.60" arrival="207.10" arrivalLane="junction_end4_0" arrivalPos="486.40" arrivalSpeed="35.89" duration="50.50" routeLength="977.73" waitingTime="0.00" waitingCount="0" stopTime="0.00" timeLoss="22.21" rerouteNo="0" devices="tripinfo_flow0.32" vType="auto" speedFactor="1.01" vaporized=""/>
    <tripinfo id="flow0.33" depart="161.60" departLane="end1_junction_0" departPos="4.10" departSpeed="0.00" departDelay="128.60" arrival="211.70" arrivalLane="junction_end4_0" arrivalPos="486.40" arrivalSpeed="35.97" duration="50.10" routeLength="977.73" waitingTime="0.00" waitingCount="0" stopTime="0.00" timeLoss="21.84" rerouteNo="0" devices="tripinfo_flow0.33" vType="auto" speedFactor="1.10" vaporized=""/>