<?xml version="1.0" encoding="UTF-8"?>

<!-- generated on 2024-04-17 13:19:08 by Eclipse SUMO GUI Version 1.19.0
<configuration xmlns:xsi="http://www.w3.org/2001/XMLSchema-instance" xsi:noNamespaceSchemaLocation="http://sumo.dlr.de/xsd/sumoConfiguration.xsd">

    <input>
        <net-file value="sim_cfg/intelligent_traffic.net.xml"/>
        <route-files value="sim_cfg/intelligent_traffic.rou.xml"/>
    </input>

    <output>
        <tripinfo-output value="sim_cfg/tripinfo.xml"/>
    </output>

    <time>
        <begin value="0"/>
        <end value="500"/>
        <step-length value="0.1"/>
    </time>

    <traci_server>
        <remote-port value="49549"/>
    </traci_server>

    <gui_only>
        <gui-settings-file value="sim_cfg/gui_settings.xml"/>
    </gui_only>

</configuration>
-->

<tripinfos xmlns:xsi="http://www.w3.org/2001/XMLSchema-instance" xsi:noNamespaceSchemaLocation="http://sumo.dlr.de/xsd/tripinfo_file.xsd">
    <tripinfo id="flow0.0" depart="0.00" departLane="end1_junction_0" departPos="4.10" departSpeed="0.00" departDelay="0.00" arrival="37.50" arrivalLane="junction_end4_0" arrivalPos="486.40" arrivalSpeed="35.78" duration="37.50" routeLength="977.73" waitingTime="0.00" waitingCount="0" stopTime="0.00" timeLoss="9.25" rerouteNo="0" devices="tripinfo_flow0.0" vType="auto" speedFactor="1.06" vaporized=""/>
    <tripinfo id="flow0.1" depart="10.00" departLane="end1_junction_0" departPos="4.10" departSpeed="0.00" departDelay="0.00" arrival="48.50" arrivalLane="junction_end4_0" arrivalPos="486.40" arrivalSpeed="35.87" duration="38.50" routeLength="977.73" waitingTime="0.00" waitingCount="0" stopTime="0.00" timeLoss="10.25" rerouteNo="0" devices="tripinfo_flow0.1" vType="auto" speedFactor="1.08" vaporized=""/>
    <tripinfo id="flow0.2" depart="20.00" departLane="end1_junction_0" departPos="4.10" departSpeed="0.00" departDelay="0.00" arrival="57.90" arrivalLane="junction_end4_0" arrivalPos="486.40" arrivalSpeed="35.86" duration="37.90" routeLength="977.73" waitingTime="0.00" waitingCount="0" stopTime="0.00" timeLoss="9.63" rerouteNo="0" devices="tripinfo_flow0.2" vType="auto" speedFactor="1.05" vaporized=""/>
    <tripinfo id="flow1.2" depart="21.50" departLane="end1_junction_0" departPos="4.10" departSpeed="0.00" departDelay="1.50" arrival="60.50" arrivalLane="junction_end3_2" arrivalPos="486.40" arrivalSpeed="35.29" duration="39.00" routeLength="995.90" waitingTime="0.00" waitingCount="0" stopTime="0.00" timeLoss="10.84" rerouteNo="0" devices="tripinfo_flow1.2" vType="auto" speedFactor="0.89" vaporized=""/>
    <tripinfo id="flow2.1" depart="11.60" departLane="end1_junction_0" departPos="4.10" departSpeed="0.00" departDelay="1.60" arrival="62.30" arrivalLane="junction_end2_1" arrivalPos="486.40" arrivalSpeed="35.76" duration="50.70" routeLength="993.21" waitingTime="0.00" waitingCount="0" stopTime="0.00" timeLoss="20.53" rerouteNo="0" devices="tripinfo_flow2.1" vType="auto" speedFactor="1.35" vaporized=""/>
    <tripinfo id="flow0.3" depart="30.00" departLane="end1_junction_0" departPos="4.10" departSpeed="0.00" departDelay="0.00" arrival="68.90" arrivalLane="junction_end4_0" arrivalPos="486.40" arrivalSpeed="34.23" duration="38.90" routeLength="977.73" waitingTime="0.00" waitingCount="0" stopTime="0.00" timeLoss="9.06" rerouteNo="0" devices="tripinfo_flow0.3" vType="auto" speedFactor="0.86" vaporized=""/>
    <tripinfo id="flow2.2" depart="21.60" departLane="end1_junction_0" departPos="4.10" departSpeed="0.00" departDelay="1.60" arrival="69.80" arrivalLane="junction_end2_2" arrivalPos="486.40" arrivalSpeed="35.84" duration="48.20" routeLength="993.21" waitingTime="7.20" waitingCount="1" stopTime="0.00" timeLoss="18.82" rerouteNo="0" devices="tripinfo_flow2.2" vType="auto" speedFactor="0.94" vaporized=""/>
    <tripinfo id="flow2.3" depart="31.60" departLane="end1_junction_0" departPos="4.10" departSpeed="0.00" departDelay="1.60" arrival="71.50" arrivalLane="junction_end2_2" arrivalPos="486.40" arrivalSpeed="35.77" duration="39.90" routeLength="993.21" waitingTime="0.00" waitingCount="0" stopTime="0.00" timeLoss="10.62" rerouteNo="0" devices="tripinfo_flow2.3" vType="auto" speedFactor="1.03" vaporized=""/>
    <tripinfo id="flow1.0" depart="1.50" departLane="end1_junction_0" departPos="4.10" departSpeed="0.00" departDelay="1.50" arrival="73.20" arrivalLane="junction_end3_0" arrivalPos="486.40" arrivalSpeed="13.95" duration="71.70" routeLength="995.90" waitingTime="12.90" waitingCount="1" stopTime="0.00" timeLoss="21.52" rerouteNo="0" devices="tripinfo_flow1.0" vType="auto" speedFactor="0.35" vaporized=""/>
    <tripinfo id="flow1.1" depart="11.50" departLane="end1_junction_0" departPos="4.10" departSpeed="0.00" departDelay="1.50" arrival="73.60" arrivalLane="junction_end3_1" arrivalPos="486.40" arrivalSpeed="13.90" duration="62.10" routeLength="995.90" waitingTime="0.00" waitingCount="0" stopTime="0.00" timeLoss="11.71" rerouteNo="0" devices="tripinfo_flow1.1" vType="auto" speedFactor="0.35" vaporized=""/>
    <tripinfo id="flow2.0" depart="1.60" departLane="end1_junction_0" departPos="4.10" departSpeed="0.00" departDelay="1.60" arrival="75.00" arrivalLane="junction_end2_0" arrivalPos="486.40" arrivalSpeed="13.86" duration="73.40" routeLength="993.21" waitingTime="13.20" waitingCount="1" stopTime="0.00" timeLoss="23.43" rerouteNo="0" devices="tripinfo_flow2.0" vType="auto" speedFactor="0.35" vaporized=""/>
    <tripinfo id="flow0.4" depart="40.00" departLane="end1_junction_0" departPos="4.10" departSpeed="0.00" departDelay="0.00" arrival="78.60" arrivalLane="junction_end4_0" arrivalPos="486.40" arrivalSpeed="35.86" duration="38.60" routeLength="977.73" waitingTime="0.00" waitingCount="0" stopTime="0.00" timeLoss="10.31" rerouteNo="0" devices="tripinfo_flow0.4" vType="auto" speedFactor="1.05" vaporized=""/>
</tripinfos>
