<?xml version="1.0" encoding="UTF-8"?>

<!-- generated on 2024-05-18 18:38:32 by Eclipse SUMO GUI Version 1.20.0
<configuration xmlns:xsi="http://www.w3.org/2001/XMLSchema-instance" xsi:noNamespaceSchemaLocation="http://sumo.dlr.de/xsd/sumoConfiguration.xsd">

    <input>
        <net-file value="sim_cfg/intelligent_traffic.net.xml"/>
        <route-files value="sim_cfg/intelligent_traffic.rou.xml"/>
    </input>

    <output>
        <tripinfo-output value="sim_cfg/tripinfo.xml"/>
    </output>

    <time>
        <begin value="0"/>
        <end value="500"/>
        <step-length value="0.1"/>
    </time>

    <traci_server>
        <remote-port value="50258"/>
    </traci_server>

    <gui_only>
        <gui-settings-file value="sim_cfg/gui_settings.xml"/>
    </gui_only>

</configuration>
-->

<tripinfos xmlns:xsi="http://www.w3.org/2001/XMLSchema-instance" xsi:noNamespaceSchemaLocation="http://sumo.dlr.de/xsd/tripinfo_file.xsd">
    <tripinfo id="flow0.0" depart="0.30" departLane="end1_junction_0" departPos="4.10" departSpeed="0.00" departDelay="0.07" arrival="43.10" arrivalLane="junction_end4_0" arrivalPos="486.40" arrivalSpeed="33.28" duration="42.80" routeLength="977.73" waitingTime="0.00" waitingCount="0" stopTime="0.00" timeLoss="13.02" rerouteNo="0" devices="tripinfo_flow0.0" vType="vtypeauto" speedFactor="1.94" vaporized=""/>
    <tripinfo id="flow0.1" depart="2.70" departLane="end1_junction_0" departPos="4.10" departSpeed="0.00" departDelay="1.79" arrival="47.80" arrivalLane="junction_end4_0" arrivalPos="486.40" arrivalSpeed="33.23" duration="45.10" routeLength="977.73" waitingTime="0.00" waitingCount="0" stopTime="0.00" timeLoss="15.27" rerouteNo="0" devices="tripinfo_flow0.1" vType="vtypeauto" speedFactor="1.83" vaporized=""/>
    <tripinfo id="flow0.2" depart="7.10" departLane="end1_junction_0" departPos="4.10" departSpeed="0.00" departDelay="0.01" arrival="52.50" arrivalLane="junction_end4_0" arrivalPos="486.40" arrivalSpeed="33.21" duration="45.40" routeLength="977.73" waitingTime="0.00" waitingCount="0" stopTime="0.00" timeLoss="15.58" rerouteNo="0" devices="tripinfo_flow0.2" vType="vtypeauto" speedFactor="1.89" vaporized=""/>
    <tripinfo id="flow0.3" depart="9.50" departLane="end1_junction_0" departPos="4.10" departSpeed="0.00" departDelay="0.99" arrival="56.40" arrivalLane="junction_end4_0" arrivalPos="486.40" arrivalSpeed="33.23" duration="46.90" routeLength="977.73" waitingTime="0.00" waitingCount="0" stopTime="0.00" timeLoss="17.08" rerouteNo="0" devices="tripinfo_flow0.3" vType="vtypeauto" speedFactor="1.94" vaporized=""/>
    <tripinfo id="flow0.4" depart="10.40" departLane="end1_junction_0" departPos="4.10" departSpeed="0.00" departDelay="0.83" arrival="60.30" arrivalLane="junction_end4_0" arrivalPos="486.40" arrivalSpeed="33.32" duration="49.90" routeLength="977.73" waitingTime="0.00" waitingCount="0" stopTime="0.00" timeLoss="20.05" rerouteNo="0" devices="tripinfo_flow0.4" vType="vtypeauto" speedFactor="1.86" vaporized=""/>
    <tripinfo id="flow0.5" depart="15.90" departLane="end1_junction_0" departPos="4.10" departSpeed="0.00" departDelay="0.07" arrival="63.80" arrivalLane="junction_end4_0" arrivalPos="486.40" arrivalSpeed="33.23" duration="47.90" routeLength="977.73" waitingTime="0.00" waitingCount="0" stopTime="0.00" timeLoss="18.19" rerouteNo="0" devices="tripinfo_flow0.5" vType="vtypeauto" speedFactor="1.99" vaporized=""/>
    <tripinfo id="flow0.6" depart="18.30" departLane="end1_junction_0" departPos="4.10" departSpeed="0.00" departDelay="1.88" arrival="67.70" arrivalLane="junction_end4_0" arrivalPos="486.40" arrivalSpeed="33.21" duration="49.40" routeLength="977.73" waitingTime="0.00" waitingCount="0" stopTime="0.00" timeLoss="19.61" rerouteNo="0" devices="tripinfo_flow0.6" vType="vtypeauto" speedFactor="1.93" vaporized=""/>
    <tripinfo id="flow0.7" depart="19.30" departLane="end1_junction_0" departPos="4.10" departSpeed="0.00" departDelay="0.08" arrival="71.40" arrivalLane="junction_end4_0" arrivalPos="486.40" arrivalSpeed="33.29" duration="52.10" routeLength="977.73" waitingTime="0.00" waitingCount="0" stopTime="0.00" timeLoss="22.21" rerouteNo="0" devices="tripinfo_flow0.7" vType="vtypeauto" speedFactor="1.88" vaporized=""/>
    <tripinfo id="flow0.8" depart="21.70" departLane="end1_junction_0" departPos="4.10" departSpeed="0.00" departDelay="1.27" arrival="74.90" arrivalLane="junction_end4_0" arrivalPos="486.40" arrivalSpeed="33.22" duration="53.20" routeLength="977.73" waitingTime="0.00" waitingCount="0" stopTime="0.00" timeLoss="23.41" rerouteNo="0" devices="tripinfo_flow0.8" vType="vtypeauto" speedFactor="1.94" vaporized=""/>
    <tripinfo id="flow0.9" depart="22.70" departLane="end1_junction_0" departPos="4.10" departSpeed="0.00" departDelay="1.68" arrival="78.50" arrivalLane="junction_end4_0" arrivalPos="486.40" arrivalSpeed="33.21" duration="55.80" routeLength="977.73" waitingTime="0.00" waitingCount="0" stopTime="0.00" timeLoss="25.90" rerouteNo="0" devices="tripinfo_flow0.9" vType="vtypeauto" speedFactor="1.94" vaporized=""/>
    <tripinfo id="flow0.10" depart="31.30" departLane="end1_junction_0" departPos="4.10" departSpeed="0.00" departDelay="0.06" arrival="81.70" arrivalLane="junction_end4_0" arrivalPos="486.40" arrivalSpeed="33.23" duration="50.40" routeLength="977.73" waitingTime="0.00" waitingCount="0" stopTime="0.00" timeLoss="20.59" rerouteNo="0" devices="tripinfo_flow0.10" vType="vtypeauto" speedFactor="1.98" vaporized=""/>
    <tripinfo id="flow0.11" depart="33.70" departLane="end1_junction_0" departPos="4.10" departSpeed="0.00" departDelay="1.67" arrival="86.00" arrivalLane="junction_end4_0" arrivalPos="486.40" arrivalSpeed="33.30" duration="52.30" routeLength="977.73" waitingTime="0.00" waitingCount="0" stopTime="0.00" timeLoss="22.48" rerouteNo="0" devices="tripinfo_flow0.11" vType="vtypeauto" speedFactor="1.89" vaporized=""/>
    <tripinfo id="flow0.12" depart="34.70" departLane="end1_junction_0" departPos="4.10" departSpeed="0.00" departDelay="1.14" arrival="90.10" arrivalLane="junction_end4_0" arrivalPos="486.40" arrivalSpeed="33.30" duration="55.40" routeLength="977.73" waitingTime="0.00" waitingCount="0" stopTime="0.00" timeLoss="25.50" rerouteNo="0" devices="tripinfo_flow0.12" vType="vtypeauto" speedFactor="1.83" vaporized=""/>
    <tripinfo id="flow0.13" depart="37.10" departLane="end1_junction_0" departPos="4.10" departSpeed="0.00" departDelay="1.96" arrival="93.80" arrivalLane="junction_end4_0" arrivalPos="486.40" arrivalSpeed="33.22" duration="56.70" routeLength="977.73" waitingTime="0.00" waitingCount="0" stopTime="0.00" timeLoss="26.81" rerouteNo="0" devices="tripinfo_flow0.13" vType="vtypeauto" speedFactor="1.87" vaporized=""/>
    <tripinfo id="flow0.17" depart="47.00" departLane="end1_junction_0" departPos="4.10" departSpeed="0.00" departDelay="2.18" arrival="97.00" arrivalLane="junction_end4_0" arrivalPos="486.40" arrivalSpeed="33.30" duration="50.00" routeLength="977.73" waitingTime="0.00" waitingCount="0" stopTime="0.00" timeLoss="20.20" rerouteNo="0" devices="tripinfo_flow0.17" vType="vtypeauto" speedFactor="1.99" vaporized=""/>
    <tripinfo id="flow0.15" depart="40.50" departLane="end1_junction_0" departPos="4.10" departSpeed="0.00" departDelay="1.56" arrival="99.20" arrivalLane="junction_end4_1" arrivalPos="486.40" arrivalSpeed="33.29" duration="58.70" routeLength="977.73" waitingTime="0.00" waitingCount="0" stopTime="0.00" timeLoss="28.90" rerouteNo="0" devices="tripinfo_flow0.15" vType="vtypeauto" speedFactor="1.95" vaporized=""/>
    <tripinfo id="flow0.14" depart="38.10" departLane="end1_junction_0" departPos="4.10" departSpeed="0.00" departDelay="1.82" arrival="102.40" arrivalLane="junction_end4_0" arrivalPos="486.40" arrivalSpeed="33.21" duration="64.30" routeLength="977.73" waitingTime="0.00" waitingCount="0" stopTime="0.00" timeLoss="34.44" rerouteNo="0" devices="tripinfo_flow0.14" vType="vtypeauto" speedFactor="1.92" vaporized=""/>
    <tripinfo id="flow0.16" depart="44.60" departLane="end1_junction_0" departPos="4.10" departSpeed="0.00" departDelay="0.04" arrival="105.70" arrivalLane="junction_end4_0" arrivalPos="486.40" arrivalSpeed="33.33" duration="61.10" routeLength="977.73" waitingTime="0.00" waitingCount="0" stopTime="0.00" timeLoss="31.23" rerouteNo="0" devices="tripinfo_flow0.16" vType="vtypeauto" speedFactor="1.93" vaporized=""/>
    <tripinfo id="flow0.18" depart="48.00" departLane="end1_junction_0" departPos="4.10" departSpeed="0.00" departDelay="0.91" arrival="109.00" arrivalLane="junction_end4_0" arrivalPos="486.40" arrivalSpeed="33.31" duration="61.00" routeLength="977.73" waitingTime="0.00" waitingCount="0" stopTime="0.00" timeLoss="31.17" rerouteNo="0" devices="tripinfo_flow0.18" vType="vtypeauto" speedFactor="1.97" vaporized=""/>
    <tripinfo id="flow0.19" depart="50.40" departLane="end1_junction_0" departPos="4.10" departSpeed="0.00" departDelay="2.55" arrival="112.80" arrivalLane="junction_end4_0" arrivalPos="486.40" arrivalSpeed="33.27" duration="62.40" routeLength="977.73" waitingTime="0.00" waitingCount="0" stopTime="0.00" timeLoss="32.58" rerouteNo="0" devices="tripinfo_flow0.19" vType="vtypeauto" speedFactor="1.90" vaporized=""/>
    <tripinfo id="flow0.20" depart="54.10" departLane="end1_junction_0" departPos="4.10" departSpeed="0.00" departDelay="0.10" arrival="116.50" arrivalLane="junction_end4_0" arrivalPos="486.40" arrivalSpeed="33.23" duration="62.40" routeLength="977.73" waitingTime="0.00" waitingCount="0" stopTime="0.00" timeLoss="32.53" rerouteNo="0" devices="tripinfo_flow0.20" vType="vtypeauto" speedFactor="1.96" vaporized=""/>
    <tripinfo id="flow0.21" depart="56.50" departLane="end1_junction_0" departPos="4.10" departSpeed="0.00" departDelay="1.16" arrival="119.80" arrivalLane="junction_end4_0" arrivalPos="486.40" arrivalSpeed="33.32" duration="63.30" routeLength="977.73" waitingTime="0.00" waitingCount="0" stopTime="0.00" timeLoss="33.51" rerouteNo="0" devices="tripinfo_flow0.21" vType="vtypeauto" speedFactor="2.00" vaporized=""/>
    <tripinfo id="flow0.25" depart="63.50" departLane="end1_junction_0" departPos="4.10" departSpeed="0.00" departDelay="4.38" arrival="122.60" arrivalLane="junction_end4_1" arrivalPos="486.40" arrivalSpeed="33.29" duration="59.10" routeLength="977.73" waitingTime="0.00" waitingCount="0" stopTime="0.00" timeLoss="29.27" rerouteNo="0" devices="tripinfo_flow0.25" vType="vtypeauto" speedFactor="1.85" vaporized=""/>
    <tripinfo id="flow0.23" depart="60.10" departLane="end1_junction_0" departPos="4.10" departSpeed="0.00" departDelay="1.49" arrival="125.20" arrivalLane="junction_end4_0" arrivalPos="486.40" arrivalSpeed="33.29" duration="65.10" routeLength="977.73" waitingTime="0.00" waitingCount="0" stopTime="0.00" timeLoss="35.25" rerouteNo="0" devices="tripinfo_flow0.23" vType="vtypeauto" speedFactor="1.88" vaporized=""/>
    <tripinfo id="flow0.27" depart="66.90" departLane="end1_junction_0" departPos="4.10" departSpeed="0.00" departDelay="5.69" arrival="127.90" arrivalLane="junction_end4_1" arrivalPos="486.40" arrivalSpeed="33.28" duration="61.00" routeLength="977.73" waitingTime="0.00" waitingCount="0" stopTime="0.00" timeLoss="31.23" rerouteNo="0" devices="tripinfo_flow0.27" vType="vtypeauto" speedFactor="1.90" vaporized=""/>
    <tripinfo id="flow0.31" depart="74.60" departLane="end1_junction_0" departPos="4.10" departSpeed="0.00" departDelay="0.04" arrival="130.80" arrivalLane="junction_end4_0" arrivalPos="486.40" arrivalSpeed="33.26" duration="56.20" routeLength="977.73" waitingTime="0.00" waitingCount="0" stopTime="0.00" timeLoss="26.40" rerouteNo="0" devices="tripinfo_flow0.31" vType="vtypeauto" speedFactor="1.88" vaporized=""/>
    <tripinfo id="flow0.22" depart="57.70" departLane="end1_junction_0" departPos="4.10" departSpeed="0.00" departDelay="0.00" arrival="133.80" arrivalLane="junction_end4_0" arrivalPos="486.40" arrivalSpeed="33.27" duration="76.10" routeLength="977.73" waitingTime="0.00" waitingCount="0" stopTime="0.00" timeLoss="46.30" rerouteNo="0" devices="tripinfo_flow0.22" vType="vtypeauto" speedFactor="1.90" vaporized=""/>
    <tripinfo id="flow0.29" depart="70.30" departLane="end1_junction_0" departPos="4.10" departSpeed="0.00" departDelay="4.99" arrival="136.90" arrivalLane="junction_end4_0" arrivalPos="486.40" arrivalSpeed="33.31" duration="66.60" routeLength="977.73" waitingTime="0.00" waitingCount="0" stopTime="0.00" timeLoss="36.81" rerouteNo="0" devices="tripinfo_flow0.29" vType="vtypeauto" speedFactor="1.99" vaporized=""/>
    <tripinfo id="flow0.34" depart="81.10" departLane="end1_junction_0" departPos="4.10" departSpeed="0.00" departDelay="2.23" arrival="139.50" arrivalLane="junction_end4_1" arrivalPos="486.40" arrivalSpeed="33.30" duration="58.40" routeLength="977.73" waitingTime="0.00" waitingCount="0" stopTime="0.00" timeLoss="28.54" rerouteNo="0" devices="tripinfo_flow0.34" vType="vtypeauto" speedFactor="1.97" vaporized=""/>
    <tripinfo id="flow0.24" depart="61.10" departLane="end1_junction_0" departPos="4.10" departSpeed="0.00" departDelay="2.36" arrival="141.90" arrivalLane="junction_end4_0" arrivalPos="486.40" arrivalSpeed="33.30" duration="80.80" routeLength="977.73" waitingTime="0.00" waitingCount="0" stopTime="0.00" timeLoss="50.99" rerouteNo="0" devices="tripinfo_flow0.24" vType="vtypeauto" speedFactor="1.85" vaporized=""/>
    <tripinfo id="flow0.40" depart="99.50" departLane="end1_junction_0" departPos="4.10" departSpeed="0.00" departDelay="0.62" arrival="145.00" arrivalLane="junction_end4_0" arrivalPos="486.40" arrivalSpeed="33.24" duration="45.50" routeLength="977.73" waitingTime="0.00" waitingCount="0" stopTime="0.00" timeLoss="15.71" rerouteNo="0" devices="tripinfo_flow0.40" vType="vtypeauto" speedFactor="1.97" vaporized=""/>
    <tripinfo id="flow0.36" depart="88.20" departLane="end1_junction_0" departPos="4.10" departSpeed="0.00" departDelay="1.55" arrival="147.20" arrivalLane="junction_end4_1" arrivalPos="486.40" arrivalSpeed="33.24" duration="59.00" routeLength="977.73" waitingTime="0.00" waitingCount="0" stopTime="0.00" timeLoss="29.19" rerouteNo="0" devices="tripinfo_flow0.36" vType="vtypeauto" speedFactor="1.96" vaporized=""/>
    <tripinfo id="flow0.42" depart="102.80" departLane="end1_junction_0" departPos="4.10" departSpeed="0.00" departDelay="1.19" arrival="149.80" arrivalLane="junction_end4_0" arrivalPos="486.40" arrivalSpeed="33.27" duration="47.00" routeLength="977.73" waitingTime="0.00" waitingCount="0" stopTime="0.00" timeLoss="17.19" rerouteNo="0" devices="tripinfo_flow0.42" vType="vtypeauto" speedFactor="1.89" vaporized=""/>
    <tripinfo id="flow0.26" depart="64.40" departLane="end1_junction_0" departPos="4.10" departSpeed="0.00" departDelay="5.04" arrival="152.40" arrivalLane="junction_end4_1" arrivalPos="486.40" arrivalSpeed="33.28" duration="88.00" routeLength="977.73" waitingTime="0.00" waitingCount="0" stopTime="0.00" timeLoss="58.17" rerouteNo="0" devices="tripinfo_flow0.26" vType="vtypeauto" speedFactor="2.00" vaporized=""/>
    <tripinfo id="flow0.28" depart="67.90" departLane="end1_junction_0" departPos="4.10" departSpeed="0.00" departDelay="5.47" arrival="154.20" arrivalLane="junction_end4_0" arrivalPos="486.40" arrivalSpeed="33.29" duration="86.30" routeLength="977.73" waitingTime="0.00" waitingCount="0" stopTime="0.00" timeLoss="56.54" rerouteNo="0" devices="tripinfo_flow0.28" vType="vtypeauto" speedFactor="1.97" vaporized=""/>
    <tripinfo id="flow0.45" depart="110.60" departLane="end1_junction_0" departPos="4.10" departSpeed="0.00" departDelay="1.30" arrival="158.30" arrivalLane="junction_end4_0" arrivalPos="486.40" arrivalSpeed="33.26" duration="47.70" routeLength="977.73" waitingTime="0.00" waitingCount="0" stopTime="0.00" timeLoss="17.85" rerouteNo="0" devices="tripinfo_flow0.45" vType="vtypeauto" speedFactor="1.91" vaporized=""/>
    <tripinfo id="flow0.30" depart="72.20" departLane="end1_junction_0" departPos="4.10" departSpeed="0.00" departDelay="0.03" arrival="160.70" arrivalLane="junction_end4_1" arrivalPos="486.40" arrivalSpeed="33.26" duration="88.50" routeLength="977.73" waitingTime="0.00" waitingCount="0" stopTime="0.00" timeLoss="58.70" rerouteNo="0" devices="tripinfo_flow0.30" vType="vtypeauto" speedFactor="1.94" vaporized=""/>
    <tripinfo id="flow0.47" depart="114.60" departLane="end1_junction_0" departPos="4.10" departSpeed="0.00" departDelay="2.04" arrival="162.60" arrivalLane="junction_end4_0" arrivalPos="486.40" arrivalSpeed="33.26" duration="48.00" routeLength="977.73" waitingTime="0.00" waitingCount="0" stopTime="0.00" timeLoss="18.16" rerouteNo="0" devices="tripinfo_flow0.47" vType="vtypeauto" speedFactor="1.97" vaporized=""/>
    <tripinfo id="flow0.32" depart="75.60" departLane="end1_junction_0" departPos="4.10" departSpeed="0.00" departDelay="0.50" arrival="165.20" arrivalLane="junction_end4_1" arrivalPos="486.40" arrivalSpeed="33.27" duration="89.60" routeLength="977.73" waitingTime="0.00" waitingCount="0" stopTime="0.00" timeLoss="59.74" rerouteNo="0" devices="tripinfo_flow0.32" vType="vtypeauto" speedFactor="1.91" vaporized=""/>
    <tripinfo id="flow0.49" depart="119.80" departLane="end1_junction_0" departPos="4.10" departSpeed="0.00" departDelay="1.60" arrival="169.20" arrivalLane="junction_end4_0" arrivalPos="486.40" arrivalSpeed="33.29" duration="49.40" routeLength="977.73" waitingTime="0.00" waitingCount="0" stopTime="0.00" timeLoss="19.60" rerouteNo="0" devices="tripinfo_flow0.49" vType="vtypeauto" speedFactor="1.89" vaporized=""/>
    <tripinfo id="flow0.33" depart="78.80" departLane="end1_junction_0" departPos="4.10" departSpeed="0.00" departDelay="0.02" arrival="172.00" arrivalLane="junction_end4_1" arrivalPos="486.40" arrivalSpeed="33.28" duration="93.20" routeLength="977.73" waitingTime="0.00" waitingCount="0" stopTime="0.00" timeLoss="63.35" rerouteNo="0" devices="tripinfo_flow0.33" vType="vtypeauto" speedFactor="1.91" vaporized=""/>
    <tripinfo id="flow0.35" depart="85.90" departLane="end1_junction_0" departPos="4.10" departSpeed="0.00" departDelay="0.01" arrival="173.70" arrivalLane="junction_end4_0" arrivalPos="486.40" arrivalSpeed="33.25" duration="87.80" routeLength="977.73" waitingTime="0.00" waitingCount="0" stopTime="0.00" timeLoss="58.01" rerouteNo="0" devices="tripinfo_flow0.35" vType="vtypeauto" speedFactor="1.94" vaporized=""/>
    <tripinfo id="flow0.51" depart="123.20" departLane="end1_junction_0" departPos="4.10" departSpeed="0.00" departDelay="3.29" arrival="176.40" arrivalLane="junction_end4_1" arrivalPos="486.40" arrivalSpeed="33.29" duration="53.20" routeLength="977.73" waitingTime="0.00" waitingCount="0" stopTime="0.00" timeLoss="23.38" rerouteNo="0" devices="tripinfo_flow0.51" vType="vtypeauto" speedFactor="1.93" vaporized=""/>
    <tripinfo id="flow0.37" depart="89.20" departLane="end1_junction_0" departPos="4.10" departSpeed="0.00" departDelay="0.34" arrival="178.60" arrivalLane="junction_end4_0" arrivalPos="486.40" arrivalSpeed="33.28" duration="89.40" routeLength="977.73" waitingTime="0.00" waitingCount="0" stopTime="0.00" timeLoss="59.61" rerouteNo="0" devices="tripinfo_flow0.37" vType="vtypeauto" speedFactor="1.98" vaporized=""/>
    <tripinfo id="flow0.53" depart="126.60" departLane="end1_junction_0" departPos="4.10" departSpeed="0.00" departDelay="5.82" arrival="181.00" arrivalLane="junction_end4_1" arrivalPos="486.40" arrivalSpeed="33.32" duration="54.40" routeLength="977.73" waitingTime="0.00" waitingCount="0" stopTime="0.00" timeLoss="24.56" rerouteNo="0" devices="tripinfo_flow0.53" vType="vtypeauto" speedFactor="1.92" vaporized=""/>
    <tripinfo id="flow0.38" depart="93.00" departLane="end1_junction_0" departPos="4.10" departSpeed="0.00" departDelay="0.05" arrival="183.20" arrivalLane="junction_end4_0" arrivalPos="486.40" arrivalSpeed="33.22" duration="90.20" routeLength="977.73" waitingTime="0.10" waitingCount="1" stopTime="0.00" timeLoss="60.48" rerouteNo="0" devices="tripinfo_flow0.38" vType="vtypeauto" speedFactor="1.98" vaporized=""/>
    <tripinfo id="flow0.39" depart="97.10" departLane="end1_junction_0" departPos="4.10" departSpeed="0.00" departDelay="0.00" arrival="186.30" arrivalLane="junction_end4_0" arrivalPos="486.40" arrivalSpeed="33.24" duration="89.20" routeLength="977.73" waitingTime="0.00" waitingCount="0" stopTime="0.00" timeLoss="59.40" rerouteNo="0" devices="tripinfo_flow0.39" vType="vtypeauto" speedFactor="2.00" vaporized=""/>
    <tripinfo id="flow0.57" depart="133.50" departLane="end1_junction_0" departPos="4.10" departSpeed="0.00" departDelay="7.78" arrival="189.00" arrivalLane="junction_end4_1" arrivalPos="486.40" arrivalSpeed="33.31" duration="55.50" routeLength="977.73" waitingTime="0.00" waitingCount="0" stopTime="0.00" timeLoss="25.74" rerouteNo="0" devices="tripinfo_flow0.57" vType="vtypeauto" speedFactor="1.96" vaporized=""/>
    <tripinfo id="flow0.55" depart="129.90" departLane="end1_junction_0" departPos="4.10" departSpeed="0.00" departDelay="6.68" arrival="191.40" arrivalLane="junction_end4_0" arrivalPos="486.40" arrivalSpeed="33.24" duration="61.50" routeLength="977.73" waitingTime="0.00" waitingCount="0" stopTime="0.00" timeLoss="31.67" rerouteNo="0" devices="tripinfo_flow0.55" vType="vtypeauto" speedFactor="1.94" vaporized=""/>
    <tripinfo id="flow0.59" depart="136.90" departLane="end1_junction_0" departPos="4.10" departSpeed="0.00" departDelay="7.52" arrival="194.00" arrivalLane="junction_end4_1" arrivalPos="486.40" arrivalSpeed="33.22" duration="57.10" routeLength="977.73" waitingTime="0.00" waitingCount="0" stopTime="0.00" timeLoss="27.28" rerouteNo="0" devices="tripinfo_flow0.59" vType="vtypeauto" speedFactor="1.94" vaporized=""/>
    <tripinfo id="flow0.41" depart="100.40" departLane="end1_junction_0" departPos="4.10" departSpeed="0.00" departDelay="1.45" arrival="196.60" arrivalLane="junction_end4_0" arrivalPos="486.40" arrivalSpeed="33.30" duration="96.20" routeLength="977.73" waitingTime="0.00" waitingCount="0" stopTime="0.00" timeLoss="66.40" rerouteNo="0" devices="tripinfo_flow0.41" vType="vtypeauto" speedFactor="1.98" vaporized=""/>
    <tripinfo id="flow0.61" depart="140.20" departLane="end1_junction_0" departPos="4.10" departSpeed="0.00" departDelay="6.54" arrival="199.80" arrivalLane="junction_end4_0" arrivalPos="486.40" arrivalSpeed="33.24" duration="59.60" routeLength="977.73" waitingTime="0.00" waitingCount="0" stopTime="0.00" timeLoss="29.75" rerouteNo="0" devices="tripinfo_flow0.61" vType="vtypeauto" speedFactor="1.89" vaporized=""/>
    <tripinfo id="flow0.43" depart="104.70" departLane="end1_junction_0" departPos="4.10" departSpeed="0.00" departDelay="0.09" arrival="202.60" arrivalLane="junction_end4_1" arrivalPos="486.40" arrivalSpeed="33.24" duration="97.90" routeLength="977.73" waitingTime="0.10" waitingCount="1" stopTime="0.00" timeLoss="67.98" rerouteNo="0" devices="tripinfo_flow0.43" vType="vtypeauto" speedFactor="1.83" vaporized=""/>
    <tripinfo id="flow0.44" depart="108.20" departLane="end1_junction_0" departPos="4.10" departSpeed="0.00" departDelay="0.02" arrival="205.40" arrivalLane="junction_end4_0" arrivalPos="486.40" arrivalSpeed="33.21" duration="97.20" routeLength="977.73" waitingTime="0.00" waitingCount="0" stopTime="0.00" timeLoss="67.30" rerouteNo="0" devices="tripinfo_flow0.44" vType="vtypeauto" speedFactor="1.92" vaporized=""/>
    <tripinfo id="flow0.66" depart="150.80" departLane="end1_junction_0" departPos="4.10" departSpeed="0.00" departDelay="2.30" arrival="208.40" arrivalLane="junction_end4_0" arrivalPos="486.40" arrivalSpeed="33.31" duration="57.60" routeLength="977.73" waitingTime="0.00" waitingCount="0" stopTime="0.00" timeLoss="27.72" rerouteNo="0" devices="tripinfo_flow0.66" vType="vtypeauto" speedFactor="1.88" vaporized=""/>
    <tripinfo id="flow0.64" depart="147.20" departLane="end1_junction_0" departPos="4.10" departSpeed="0.00" departDelay="0.06" arrival="210.60" arrivalLane="junction_end4_1" arrivalPos="486.40" arrivalSpeed="33.25" duration="63.40" routeLength="977.73" waitingTime="0.00" waitingCount="0" stopTime="0.00" timeLoss="33.54" rerouteNo="0" devices="tripinfo_flow0.64" vType="vtypeauto" speedFactor="1.93" vaporized=""/>
    <tripinfo id="flow0.69" depart="159.90" departLane="end1_junction_0" departPos="4.10" departSpeed="0.00" departDelay="2.54" arrival="213.50" arrivalLane="junction_end4_0" arrivalPos="486.40" arrivalSpeed="33.29" duration="53.60" routeLength="977.73" waitingTime="0.00" waitingCount="0" stopTime="0.00" timeLoss="23.81" rerouteNo="0" devices="tripinfo_flow0.69" vType="vtypeauto" speedFactor="1.98" vaporized=""/>
    <tripinfo id="flow0.71" depart="163.20" departLane="end1_junction_0" departPos="4.10" departSpeed="0.00" departDelay="1.36" arrival="216.20" arrivalLane="junction_end4_1" arrivalPos="486.40" arrivalSpeed="33.24" duration="53.00" routeLength="977.73" waitingTime="0.00" waitingCount="0" stopTime="0.00" timeLoss="23.14" rerouteNo="0" devices="tripinfo_flow0.71" vType="vtypeauto" speedFactor="1.90" vaporized=""/>
    <tripinfo id="flow0.46" depart="112.20" departLane="end1_junction_0" departPos="4.10" departSpeed="0.00" departDelay="0.06" arrival="218.50" arrivalLane="junction_end4_0" arrivalPos="486.40" arrivalSpeed="33.23" duration="106.30" routeLength="977.73" waitingTime="0.00" waitingCount="0" stopTime="0.00" timeLoss="76.50" rerouteNo="0" devices="tripinfo_flow0.46" vType="vtypeauto" speedFactor="1.96" vaporized=""/>
    <tripinfo id="flow0.73" depart="169.20" departLane="end1_junction_0" departPos="4.10" departSpeed="0.00" departDelay="1.32" arrival="221.10" arrivalLane="junction_end4_1" arrivalPos="486.40" arrivalSpeed="33.30" duration="51.90" routeLength="977.73" waitingTime="0.00" waitingCount="0" stopTime="0.00" timeLoss="22.10" rerouteNo="0" devices="tripinfo_flow0.73" vType="vtypeauto" speedFactor="1.96" vaporized=""/>
    <tripinfo id="flow0.48" depart="117.40" departLane="end1_junction_0" departPos="4.10" departSpeed="0.00" departDelay="0.00" arrival="223.90" arrivalLane="junction_end4_0" arrivalPos="486.40" arrivalSpeed="33.23" duration="106.50" routeLength="977.73" waitingTime="0.00" waitingCount="0" stopTime="0.00" timeLoss="76.67" rerouteNo="0" devices="tripinfo_flow0.48" vType="vtypeauto" speedFactor="1.95" vaporized=""/>
    <tripinfo id="flow0.50" depart="120.80" departLane="end1_junction_0" departPos="4.10" departSpeed="0.00" departDelay="1.93" arrival="226.40" arrivalLane="junction_end4_1" arrivalPos="486.40" arrivalSpeed="33.23" duration="105.60" routeLength="977.73" waitingTime="0.00" waitingCount="0" stopTime="0.00" timeLoss="75.78" rerouteNo="0" devices="tripinfo_flow0.50" vType="vtypeauto" speedFactor="1.96" vaporized=""/>
    <tripinfo id="flow0.52" depart="124.20" departLane="end1_junction_0" departPos="4.10" departSpeed="0.00" departDelay="3.56" arrival="229.50" arrivalLane="junction_end4_0" arrivalPos="486.40" arrivalSpeed="33.32" duration="105.30" routeLength="977.73" waitingTime="0.00" waitingCount="0" stopTime="0.00" timeLoss="75.41" rerouteNo="0" devices="tripinfo_flow0.52" vType="vtypeauto" speedFactor="1.87" vaporized=""/>
    <tripinfo id="flow0.77" depart="185.70" departLane="end1_junction_0" departPos="4.10" departSpeed="0.00" departDelay="0.07" arrival="233.30" arrivalLane="junction_end4_0" arrivalPos="486.40" arrivalSpeed="33.25" duration="47.60" routeLength="977.73" waitingTime="0.00" waitingCount="0" stopTime="0.00" timeLoss="17.79" rerouteNo="0" devices="tripinfo_flow0.77" vType="vtypeauto" speedFactor="1.89" vaporized=""/>
    <tripinfo id="flow0.54" depart="127.50" departLane="end1_junction_0" departPos="4.10" departSpeed="0.00" departDelay="6.64" arrival="235.50" arrivalLane="junction_end4_1" arrivalPos="486.40" arrivalSpeed="33.22" duration="108.00" routeLength="977.73" waitingTime="0.00" waitingCount="0" stopTime="0.00" timeLoss="78.25" rerouteNo="0" devices="tripinfo_flow0.54" vType="vtypeauto" speedFactor="1.99" vaporized=""/>
    <tripinfo id="flow0.78" depart="188.00" departLane="end1_junction_0" departPos="4.10" departSpeed="0.00" departDelay="1.72" arrival="237.70" arrivalLane="junction_end4_0" arrivalPos="486.40" arrivalSpeed="33.25" duration="49.70" routeLength="977.73" waitingTime="0.00" waitingCount="0" stopTime="0.00" timeLoss="19.92" rerouteNo="0" devices="tripinfo_flow0.78" vType="vtypeauto" speedFactor="1.97" vaporized=""/>
    <tripinfo id="flow0.56" depart="131.10" departLane="end1_junction_0" departPos="4.10" departSpeed="0.00" departDelay="6.47" arrival="240.10" arrivalLane="junction_end4_1" arrivalPos="486.40" arrivalSpeed="33.24" duration="109.00" routeLength="977.73" waitingTime="0.00" waitingCount="0" stopTime="0.00" timeLoss="79.14" rerouteNo="0" devices="tripinfo_flow0.56" vType="vtypeauto" speedFactor="1.82" vaporized=""/>
    <tripinfo id="flow0.80" depart="191.30" departLane="end1_junction_0" departPos="4.10" departSpeed="0.00" departDelay="0.46" arrival="242.40" arrivalLane="junction_end4_0" arrivalPos="486.40" arrivalSpeed="33.23" duration="51.10" routeLength="977.73" waitingTime="0.00" waitingCount="0" stopTime="0.00" timeLoss="21.29" rerouteNo="0" devices="tripinfo_flow0.80" vType="vtypeauto" speedFactor="1.90" vaporized=""/>
    <tripinfo id="flow0.58" depart="134.50" departLane="end1_junction_0" departPos="4.10" departSpeed="0.00" departDelay="5.22" arrival="244.80" arrivalLane="junction_end4_1" arrivalPos="486.40" arrivalSpeed="33.23" duration="110.30" routeLength="977.73" waitingTime="0.00" waitingCount="0" stopTime="0.00" timeLoss="80.51" rerouteNo="0" devices="tripinfo_flow0.58" vType="vtypeauto" speedFactor="1.95" vaporized=""/>