<?xml version="1.0" encoding="UTF-8"?>

<!-- generated on 2024-05-23 17:29:28 by Eclipse SUMO GUI Version 1.20.0
<configuration xmlns:xsi="http://www.w3.org/2001/XMLSchema-instance" xsi:noNamespaceSchemaLocation="http://sumo.dlr.de/xsd/sumoConfiguration.xsd">

    <input>
        <net-file value="sim_cfg/intelligent_traffic.net.xml"/>
        <route-files value="sim_cfg/intelligent_traffic.rou.xml"/>
    </input>

    <output>
        <tripinfo-output value="sim_cfg/tripinfo.xml"/>
    </output>

    <time>
        <begin value="0"/>
        <end value="500"/>
        <step-length value="0.1"/>
    </time>

    <traci_server>
        <remote-port value="49265"/>
    </traci_server>

    <gui_only>
        <gui-settings-file value="sim_cfg/gui_settings.xml"/>
    </gui_only>

</configuration>
-->

<tripinfos xmlns:xsi="http://www.w3.org/2001/XMLSchema-instance" xsi:noNamespaceSchemaLocation="http://sumo.dlr.de/xsd/tripinfo_file.xsd">
    <tripinfo id="flow4.0" depart="2.40" departLane="end2_junction_0" departPos="4.10" departSpeed="0.00" departDelay="2.40" arrival="39.40" arrivalLane="junction_end4_1" arrivalPos="486.40" arrivalSpeed="35.95" duration="37.00" routeLength="995.90" waitingTime="0.00" waitingCount="0" stopTime="0.00" timeLoss="9.30" rerouteNo="0" devices="tripinfo_flow4.0" vType="vtypeauto" speedFactor="1.03" vaporized=""/>
    <tripinfo id="flow10.0" depart="2.50" departLane="end4_junction_0" departPos="4.10" departSpeed="0.00" departDelay="2.50" arrival="39.40" arrivalLane="junction_end2_1" arrivalPos="486.40" arrivalSpeed="35.92" duration="36.90" routeLength="995.90" waitingTime="0.00" waitingCount="0" stopTime="0.00" timeLoss="9.17" rerouteNo="0" devices="tripinfo_flow10.0" vType="vtypeauto" speedFactor="1.09" vaporized=""/>
    <tripinfo id="flow3.0" depart="0.00" departLane="end2_junction_0" departPos="4.10" departSpeed="0.00" departDelay="0.00" arrival="45.10" arrivalLane="junction_end1_0" arrivalPos="486.40" arrivalSpeed="35.90" duration="45.10" routeLength="977.73" waitingTime="0.00" waitingCount="0" stopTime="0.00" timeLoss="16.95" rerouteNo="0" devices="tripinfo_flow3.0" vType="vtypeauto" speedFactor="1.08" vaporized=""/>
    <tripinfo id="flow0.0" depart="0.00" departLane="end1_junction_0" departPos="4.10" departSpeed="0.00" departDelay="0.00" arrival="45.50" arrivalLane="junction_end4_0" arrivalPos="486.40" arrivalSpeed="35.91" duration="45.50" routeLength="977.73" waitingTime="0.00" waitingCount="0" stopTime="0.00" timeLoss="17.28" rerouteNo="0" devices="tripinfo_flow0.0" vType="vtypeauto" speedFactor="1.06" vaporized=""/>
    <tripinfo id="flow6.0" depart="0.00" departLane="end3_junction_0" departPos="4.10" departSpeed="0.00" departDelay="0.00" arrival="45.80" arrivalLane="junction_end2_0" arrivalPos="486.40" arrivalSpeed="35.89" duration="45.80" routeLength="977.73" waitingTime="0.00" waitingCount="0" stopTime="0.00" timeLoss="17.55" rerouteNo="0" devices="tripinfo_flow6.0" vType="vtypeauto" speedFactor="1.05" vaporized=""/>
    <tripinfo id="flow9.0" depart="0.00" departLane="end4_junction_0" departPos="4.10" departSpeed="0.00" departDelay="0.00" arrival="46.90" arrivalLane="junction_end3_0" arrivalPos="486.40" arrivalSpeed="34.23" duration="46.90" routeLength="977.73" waitingTime="0.00" waitingCount="0" stopTime="0.00" timeLoss="16.97" rerouteNo="0" devices="tripinfo_flow9.0" vType="vtypeauto" speedFactor="0.86" vaporized=""/>
    <tripinfo id="flow10.1" depart="7.40" departLane="end4_junction_0" departPos="4.10" departSpeed="0.00" departDelay="6.40" arrival="49.10" arrivalLane="junction_end2_1" arrivalPos="486.40" arrivalSpeed="35.90" duration="41.70" routeLength="995.90" waitingTime="0.00" waitingCount="0" stopTime="0.00" timeLoss="13.97" rerouteNo="0" devices="tripinfo_flow10.1" vType="vtypeauto" speedFactor="0.97" vaporized=""/>
    <tripinfo id="flow4.1" depart="7.30" departLane="end2_junction_0" departPos="4.10" departSpeed="0.00" departDelay="6.30" arrival="49.60" arrivalLane="junction_end4_1" arrivalPos="486.40" arrivalSpeed="35.06" duration="42.30" routeLength="995.90" waitingTime="0.00" waitingCount="0" stopTime="0.00" timeLoss="13.95" rerouteNo="0" devices="tripinfo_flow4.1" vType="vtypeauto" speedFactor="0.88" vaporized=""/>
    <tripinfo id="flow9.1" depart="5.00" departLane="end4_junction_0" departPos="4.10" departSpeed="0.00" departDelay="4.00" arrival="51.20" arrivalLane="junction_end3_0" arrivalPos="486.40" arrivalSpeed="35.99" duration="46.20" routeLength="977.73" waitingTime="0.00" waitingCount="0" stopTime="0.00" timeLoss="17.98" rerouteNo="0" devices="tripinfo_flow9.1" vType="vtypeauto" speedFactor="1.01" vaporized=""/>
    <tripinfo id="flow3.1" depart="4.90" departLane="end2_junction_0" departPos="4.10" departSpeed="0.00" departDelay="3.90" arrival="51.30" arrivalLane="junction_end1_0" arrivalPos="486.40" arrivalSpeed="35.98" duration="46.40" routeLength="977.73" waitingTime="0.00" waitingCount="0" stopTime="0.00" timeLoss="17.94" rerouteNo="0" devices="tripinfo_flow3.1" vType="vtypeauto" speedFactor="0.93" vaporized=""/>
    <tripinfo id="flow0.1" depart="4.90" departLane="end1_junction_0" departPos="4.10" departSpeed="0.00" departDelay="3.90" arrival="51.40" arrivalLane="junction_end4_0" arrivalPos="486.40" arrivalSpeed="35.99" duration="46.50" routeLength="977.73" waitingTime="0.00" waitingCount="0" stopTime="0.00" timeLoss="18.23" rerouteNo="0" devices="tripinfo_flow0.1" vType="vtypeauto" speedFactor="1.05" vaporized=""/>
    <tripinfo id="flow6.1" depart="4.90" departLane="end3_junction_0" departPos="4.10" departSpeed="0.00" departDelay="3.90" arrival="52.10" arrivalLane="junction_end2_0" arrivalPos="486.40" arrivalSpeed="35.92" duration="47.20" routeLength="977.73" waitingTime="0.00" waitingCount="0" stopTime="0.00" timeLoss="18.73" rerouteNo="0" devices="tripinfo_flow6.1" vType="vtypeauto" speedFactor="0.94" vaporized=""/>
    <tripinfo id="flow4.2" depart="12.10" departLane="end2_junction_0" departPos="4.10" departSpeed="0.00" departDelay="10.10" arrival="54.70" arrivalLane="junction_end4_1" arrivalPos="486.40" arrivalSpeed="35.99" duration="42.60" routeLength="995.90" waitingTime="0.00" waitingCount="0" stopTime="0.00" timeLoss="14.87" rerouteNo="0" devices="tripinfo_flow4.2" vType="vtypeauto" speedFactor="1.13" vaporized=""/>
    <tripinfo id="flow10.2" depart="12.30" departLane="end4_junction_0" departPos="4.10" departSpeed="0.00" departDelay="10.30" arrival="54.70" arrivalLane="junction_end2_1" arrivalPos="486.40" arrivalSpeed="35.94" duration="42.40" routeLength="995.90" waitingTime="0.00" waitingCount="0" stopTime="0.00" timeLoss="14.69" rerouteNo="0" devices="tripinfo_flow10.2" vType="vtypeauto" speedFactor="0.99" vaporized=""/>
    <tripinfo id="flow9.2" depart="9.90" departLane="end4_junction_0" departPos="4.10" departSpeed="0.00" departDelay="7.90" arrival="55.60" arrivalLane="junction_end3_0" arrivalPos="486.40" arrivalSpeed="35.97" duration="45.70" routeLength="977.73" waitingTime="0.00" waitingCount="0" stopTime="0.00" timeLoss="17.52" rerouteNo="0" devices="tripinfo_flow9.2" vType="vtypeauto" speedFactor="1.17" vaporized=""/>
    <tripinfo id="flow6.2" depart="9.80" departLane="end3_junction_0" departPos="4.10" departSpeed="0.00" departDelay="7.80" arrival="56.20" arrivalLane="junction_end2_0" arrivalPos="486.40" arrivalSpeed="35.96" duration="46.40" routeLength="977.73" waitingTime="0.00" waitingCount="0" stopTime="0.00" timeLoss="18.36" rerouteNo="0" devices="tripinfo_flow6.2" vType="vtypeauto" speedFactor="1.18" vaporized=""/>
    <tripinfo id="flow3.2" depart="9.80" departLane="end2_junction_0" departPos="4.10" departSpeed="0.00" departDelay="7.80" arrival="56.40" arrivalLane="junction_end1_0" arrivalPos="486.40" arrivalSpeed="35.88" duration="46.60" routeLength="977.73" waitingTime="0.00" waitingCount="0" stopTime="0.00" timeLoss="18.21" rerouteNo="0" devices="tripinfo_flow3.2" vType="vtypeauto" speedFactor="0.95" vaporized=""/>
    <tripinfo id="flow0.2" depart="9.90" departLane="end1_junction_0" departPos="4.10" departSpeed="0.00" departDelay="7.90" arrival="58.70" arrivalLane="junction_end4_0" arrivalPos="486.40" arrivalSpeed="32.96" duration="48.80" routeLength="977.73" waitingTime="0.00" waitingCount="0" stopTime="0.00" timeLoss="17.85" rerouteNo="0" devices="tripinfo_flow0.2" vType="vtypeauto" speedFactor="0.83" vaporized=""/>
    <tripinfo id="flow4.3" depart="17.00" departLane="end2_junction_0" departPos="4.10" departSpeed="0.00" departDelay="14.00" arrival="59.50" arrivalLane="junction_end4_1" arrivalPos="486.40" arrivalSpeed="35.92" duration="42.50" routeLength="995.90" waitingTime="0.00" waitingCount="0" stopTime="0.00" timeLoss="14.82" rerouteNo="0" devices="tripinfo_flow4.3" vType="vtypeauto" speedFactor="1.03" vaporized=""/>
    <tripinfo id="flow10.3" depart="17.10" departLane="end4_junction_0" departPos="4.10" departSpeed="0.00" departDelay="14.10" arrival="59.60" arrivalLane="junction_end2_1" arrivalPos="486.40" arrivalSpeed="35.92" duration="42.50" routeLength="995.90" waitingTime="0.00" waitingCount="0" stopTime="0.00" timeLoss="14.83" rerouteNo="0" devices="tripinfo_flow10.3" vType="vtypeauto" speedFactor="1.00" vaporized=""/>
    <tripinfo id="flow9.3" depart="14.70" departLane="end4_junction_0" departPos="4.10" departSpeed="0.00" departDelay="11.70" arrival="61.00" arrivalLane="junction_end3_0" arrivalPos="486.40" arrivalSpeed="35.99" duration="46.30" routeLength="977.73" waitingTime="0.00" waitingCount="0" stopTime="0.00" timeLoss="18.05" rerouteNo="0" devices="tripinfo_flow9.3" vType="vtypeauto" speedFactor="1.09" vaporized=""/>
    <tripinfo id="flow3.3" depart="14.60" departLane="end2_junction_0" departPos="4.10" departSpeed="0.00" departDelay="11.60" arrival="61.90" arrivalLane="junction_end1_0" arrivalPos="486.40" arrivalSpeed="35.97" duration="47.30" routeLength="977.73" waitingTime="0.00" waitingCount="0" stopTime="0.00" timeLoss="18.83" rerouteNo="0" devices="tripinfo_flow3.3" vType="vtypeauto" speedFactor="0.90" vaporized=""/>
    <tripinfo id="flow6.3" depart="14.70" departLane="end3_junction_0" departPos="4.10" departSpeed="0.00" departDelay="11.70" arrival="61.90" arrivalLane="junction_end2_0" arrivalPos="486.40" arrivalSpeed="35.90" duration="47.20" routeLength="977.73" waitingTime="0.00" waitingCount="0" stopTime="0.00" timeLoss="19.01" rerouteNo="0" devices="tripinfo_flow6.3" vType="vtypeauto" speedFactor="1.09" vaporized=""/>
    <tripinfo id="flow0.3" depart="14.80" departLane="end1_junction_0" departPos="4.10" departSpeed="0.00" departDelay="11.80" arrival="62.60" arrivalLane="junction_end4_0" arrivalPos="486.40" arrivalSpeed="35.96" duration="47.80" routeLength="977.73" waitingTime="0.00" waitingCount="0" stopTime="0.00" timeLoss="19.49" rerouteNo="0" devices="tripinfo_flow0.3" vType="vtypeauto" speedFactor="0.97" vaporized=""/>
    <tripinfo id="flow4.4" depart="22.00" departLane="end2_junction_0" departPos="4.10" departSpeed="0.00" departDelay="18.00" arrival="64.90" arrivalLane="junction_end4_1" arrivalPos="486.40" arrivalSpeed="35.95" duration="42.90" routeLength="995.90" waitingTime="0.00" waitingCount="0" stopTime="0.00" timeLoss="15.22" rerouteNo="0" devices="tripinfo_flow4.4" vType="vtypeauto" speedFactor="1.02" vaporized=""/>
    <tripinfo id="flow10.4" depart="22.00" departLane="end4_junction_0" departPos="4.10" departSpeed="0.00" departDelay="18.00" arrival="65.20" arrivalLane="junction_end2_1" arrivalPos="486.40" arrivalSpeed="35.98" duration="43.20" routeLength="995.90" waitingTime="0.00" waitingCount="0" stopTime="0.00" timeLoss="15.45" rerouteNo="0" devices="tripinfo_flow10.4" vType="vtypeauto" speedFactor="1.02" vaporized=""/>
    <tripinfo id="flow3.4" depart="19.60" departLane="end2_junction_0" departPos="4.10" departSpeed="0.00" departDelay="15.60" arrival="65.60" arrivalLane="junction_end1_0" arrivalPos="486.40" arrivalSpeed="35.99" duration="46.00" routeLength="977.73" waitingTime="0.00" waitingCount="0" stopTime="0.00" timeLoss="17.96" rerouteNo="0" devices="tripinfo_flow3.4" vType="vtypeauto" speedFactor="1.17" vaporized=""/>
    <tripinfo id="flow9.4" depart="19.60" departLane="end4_junction_0" departPos="4.10" departSpeed="0.00" departDelay="15.60" arrival="65.80" arrivalLane="junction_end3_0" arrivalPos="486.40" arrivalSpeed="35.94" duration="46.20" routeLength="977.73" waitingTime="0.00" waitingCount="0" stopTime="0.00" timeLoss="18.08" rerouteNo="0" devices="tripinfo_flow9.4" vType="vtypeauto" speedFactor="1.14" vaporized=""/>
    <tripinfo id="flow6.4" depart="19.60" departLane="end3_junction_0" departPos="4.10" departSpeed="0.00" departDelay="15.60" arrival="67.40" arrivalLane="junction_end2_0" arrivalPos="486.40" arrivalSpeed="35.91" duration="47.80" routeLength="977.73" waitingTime="0.00" waitingCount="0" stopTime="0.00" timeLoss="19.52" rerouteNo="0" devices="tripinfo_flow6.4" vType="vtypeauto" speedFactor="1.00" vaporized=""/>
    <tripinfo id="flow0.4" depart="19.70" departLane="end1_junction_0" departPos="4.10" departSpeed="0.00" departDelay="15.70" arrival="68.10" arrivalLane="junction_end4_0" arrivalPos="486.40" arrivalSpeed="35.01" duration="48.40" routeLength="977.73" waitingTime="0.00" waitingCount="0" stopTime="0.00" timeLoss="19.28" rerouteNo="0" devices="tripinfo_flow0.4" vType="vtypeauto" speedFactor="0.88" vaporized=""/>
    <tripinfo id="flow10.5" depart="26.90" departLane="end4_junction_0" departPos="4.10" departSpeed="0.00" departDelay="21.90" arrival="69.80" arrivalLane="junction_end2_1" arrivalPos="486.40" arrivalSpeed="35.90" duration="42.90" routeLength="995.90" waitingTime="0.00" waitingCount="0" stopTime="0.00" timeLoss="15.19" rerouteNo="0" devices="tripinfo_flow10.5" vType="vtypeauto" speedFactor="1.02" vaporized=""/>
    <tripinfo id="flow9.5" depart="24.50" departLane="end4_junction_0" departPos="4.10" departSpeed="0.00" departDelay="19.50" arrival="71.60" arrivalLane="junction_end3_0" arrivalPos="486.40" arrivalSpeed="36.00" duration="47.10" routeLength="977.73" waitingTime="0.00" waitingCount="0" stopTime="0.00" timeLoss="18.88" rerouteNo="0" devices="tripinfo_flow9.5" vType="vtypeauto" speedFactor="1.02" vaporized=""/>
    <tripinfo id="flow3.5" depart="24.50" departLane="end2_junction_0" departPos="4.10" departSpeed="0.00" departDelay="19.50" arrival="71.70" arrivalLane="junction_end1_0" arrivalPos="486.40" arrivalSpeed="35.97" duration="47.20" routeLength="977.73" waitingTime="0.00" waitingCount="0" stopTime="0.00" timeLoss="18.88" rerouteNo="0" devices="tripinfo_flow3.5" vType="vtypeauto" speedFactor="0.99" vaporized=""/>
    <tripinfo id="flow4.5" depart="26.90" departLane="end2_junction_0" departPos="4.10" departSpeed="0.00" departDelay="21.90" arrival="71.90" arrivalLane="junction_end4_1" arrivalPos="486.40" arrivalSpeed="35.88" duration="45.00" routeLength="995.90" waitingTime="0.00" waitingCount="0" stopTime="0.00" timeLoss="17.30" rerouteNo="0" devices="tripinfo_flow4.5" vType="vtypeauto" speedFactor="0.94" vaporized=""/>
    <tripinfo id="flow0.5" depart="24.60" departLane="end1_junction_0" departPos="4.10" departSpeed="0.00" departDelay="19.60" arrival="72.30" arrivalLane="junction_end4_0" arrivalPos="486.40" arrivalSpeed="35.90" duration="47.70" routeLength="977.73" waitingTime="0.00" waitingCount="0" stopTime="0.00" timeLoss="19.52" rerouteNo="0" devices="tripinfo_flow0.5" vType="vtypeauto" speedFactor="1.08" vaporized=""/>
    <tripinfo id="flow6.5" depart="24.50" departLane="end3_junction_0" departPos="4.10" departSpeed="0.00" departDelay="19.50" arrival="73.20" arrivalLane="junction_end2_0" arrivalPos="486.40" arrivalSpeed="35.89" duration="48.70" routeLength="977.73" waitingTime="0.00" waitingCount="0" stopTime="0.00" timeLoss="20.20" rerouteNo="0" devices="tripinfo_flow6.5" vType="vtypeauto" speedFactor="0.91" vaporized=""/>
    <tripinfo id="flow4.6" depart="31.80" departLane="end2_junction_0" departPos="4.10" departSpeed="0.00" departDelay="25.80" arrival="75.20" arrivalLane="junction_end4_1" arrivalPos="486.40" arrivalSpeed="35.95" duration="43.40" routeLength="995.90" waitingTime="0.00" waitingCount="0" stopTime="0.00" timeLoss="15.74" rerouteNo="0" devices="tripinfo_flow4.6" vType="vtypeauto" speedFactor="1.03" vaporized=""/>
    <tripinfo id="flow10.6" depart="31.80" departLane="end4_junction_0" departPos="4.10" departSpeed="0.00" departDelay="25.80" arrival="75.40" arrivalLane="junction_end2_1" arrivalPos="486.40" arrivalSpeed="36.00" duration="43.60" routeLength="995.90" waitingTime="0.00" waitingCount="0" stopTime="0.00" timeLoss="15.92" rerouteNo="0" devices="tripinfo_flow10.6" vType="vtypeauto" speedFactor="1.02" vaporized=""/>
    <tripinfo id="flow9.6" depart="29.40" departLane="end4_junction_0" departPos="4.10" departSpeed="0.00" departDelay="23.40" arrival="76.70" arrivalLane="junction_end3_0" arrivalPos="486.40" arrivalSpeed="35.90" duration="47.30" routeLength="977.73" waitingTime="0.00" waitingCount="0" stopTime="0.00" timeLoss="18.95" rerouteNo="0" devices="tripinfo_flow9.6" vType="vtypeauto" speedFactor="1.00" vaporized=""/>
    <tripinfo id="flow6.6" depart="29.40" departLane="end3_junction_0" departPos="4.10" departSpeed="0.00" departDelay="23.40" arrival="77.70" arrivalLane="junction_end2_0" arrivalPos="486.40" arrivalSpeed="36.00" duration="48.30" routeLength="977.73" waitingTime="0.00" waitingCount="0" stopTime="0.00" timeLoss="20.05" rerouteNo="0" devices="tripinfo_flow6.6" vType="vtypeauto" speedFactor="1.01" vaporized=""/>
    <tripinfo id="flow0.6" depart="29.50" departLane="end1_junction_0" departPos="4.10" departSpeed="0.00" departDelay="23.50" arrival="77.90" arrivalLane="junction_end4_0" arrivalPos="486.40" arrivalSpeed="35.99" duration="48.40" routeLength="977.73" waitingTime="0.00" waitingCount="0" stopTime="0.00" timeLoss="20.08" rerouteNo="0" devices="tripinfo_flow0.6" vType="vtypeauto" speedFactor="0.94" vaporized=""/>
    <tripinfo id="flow3.6" depart="29.40" departLane="end2_junction_0" departPos="4.10" departSpeed="0.00" departDelay="23.40" arrival="77.90" arrivalLane="junction_end1_0" arrivalPos="486.40" arrivalSpeed="35.95" duration="48.50" routeLength="977.73" waitingTime="0.00" waitingCount="0" stopTime="0.00" timeLoss="20.12" rerouteNo="0" devices="tripinfo_flow3.6" vType="vtypeauto" speedFactor="0.98" vaporized=""/>
</tripinfos>
