<?xml version="1.0" encoding="UTF-8"?>

<!-- generated on 2024-05-16 21:10:38 by Eclipse SUMO GUI Version 1.20.0
<configuration xmlns:xsi="http://www.w3.org/2001/XMLSchema-instance" xsi:noNamespaceSchemaLocation="http://sumo.dlr.de/xsd/sumoConfiguration.xsd">

    <input>
        <net-file value="sim_cfg/intelligent_traffic.net.xml"/>
        <route-files value="sim_cfg/intelligent_traffic.rou.xml"/>
    </input>

    <output>
        <tripinfo-output value="sim_cfg/tripinfo2.xml"/>
    </output>

    <time>
        <begin value="0"/>
        <end value="500"/>
        <step-length value="0.1"/>
    </time>

    <traci_server>
        <remote-port value="50055"/>
    </traci_server>

    <gui_only>
        <gui-settings-file value="sim_cfg/gui_settings.xml"/>
    </gui_only>

</configuration>
-->

<tripinfos xmlns:xsi="http://www.w3.org/2001/XMLSchema-instance" xsi:noNamespaceSchemaLocation="http://sumo.dlr.de/xsd/tripinfo_file.xsd">
    <tripinfo id="flow0.0" depart="0.00" departLane="end1_junction_0" departPos="4.10" departSpeed="0.00" departDelay="0.00" arrival="42.80" arrivalLane="junction_end4_0" arrivalPos="486.40" arrivalSpeed="33.25" duration="42.80" routeLength="977.73" waitingTime="0.00" waitingCount="0" stopTime="0.00" timeLoss="13.02" rerouteNo="0" devices="tripinfo_flow0.0" vType="vtypeauto" speedFactor="1.94" vaporized=""/>
    <tripinfo id="flow0.1" depart="4.90" departLane="end1_junction_0" departPos="4.10" departSpeed="0.00" departDelay="3.90" arrival="52.60" arrivalLane="junction_end4_0" arrivalPos="486.40" arrivalSpeed="33.26" duration="47.70" routeLength="977.73" waitingTime="0.00" waitingCount="0" stopTime="0.00" timeLoss="17.91" rerouteNo="0" devices="tripinfo_flow0.1" vType="vtypeauto" speedFactor="1.94" vaporized=""/>
    <tripinfo id="flow0.2" depart="10.00" departLane="end1_junction_0" departPos="4.10" departSpeed="0.00" departDelay="8.00" arrival="59.30" arrivalLane="junction_end4_0" arrivalPos="486.40" arrivalSpeed="33.26" duration="49.30" routeLength="977.73" waitingTime="0.00" waitingCount="0" stopTime="0.00" timeLoss="19.41" rerouteNo="0" devices="tripinfo_flow0.2" vType="vtypeauto" speedFactor="1.93" vaporized=""/>
    <tripinfo id="flow0.3" depart="14.30" departLane="end1_junction_0" departPos="4.10" departSpeed="0.00" departDelay="11.30" arrival="65.30" arrivalLane="junction_end4_0" arrivalPos="486.40" arrivalSpeed="33.30" duration="51.00" routeLength="977.73" waitingTime="0.00" waitingCount="0" stopTime="0.00" timeLoss="21.17" rerouteNo="0" devices="tripinfo_flow0.3" vType="vtypeauto" speedFactor="1.94" vaporized=""/>
    <tripinfo id="flow0.4" depart="18.60" departLane="end1_junction_0" departPos="4.10" departSpeed="0.00" departDelay="14.60" arrival="68.90" arrivalLane="junction_end4_0" arrivalPos="486.40" arrivalSpeed="33.25" duration="50.30" routeLength="977.73" waitingTime="0.00" waitingCount="0" stopTime="0.00" timeLoss="20.42" rerouteNo="0" devices="tripinfo_flow0.4" vType="vtypeauto" speedFactor="1.83" vaporized=""/>
    <tripinfo id="flow1.0" depart="2.40" departLane="end1_junction_0" departPos="4.10" departSpeed="0.00" departDelay="2.40" arrival="73.10" arrivalLane="junction_end3_1" arrivalPos="486.40" arrivalSpeed="33.30" duration="70.70" routeLength="995.90" waitingTime="21.60" waitingCount="1" stopTime="0.00" timeLoss="40.73" rerouteNo="0" devices="tripinfo_flow1.0" vType="vtypeauto" speedFactor="1.83" vaporized=""/>
    <tripinfo id="flow0.5" depart="23.50" departLane="end1_junction_0" departPos="4.10" departSpeed="0.00" departDelay="18.50" arrival="75.40" arrivalLane="junction_end4_0" arrivalPos="486.40" arrivalSpeed="33.27" duration="51.90" routeLength="977.73" waitingTime="0.00" waitingCount="0" stopTime="0.00" timeLoss="22.12" rerouteNo="0" devices="tripinfo_flow0.5" vType="vtypeauto" speedFactor="1.95" vaporized=""/>
    <tripinfo id="flow1.1" depart="7.40" departLane="end1_junction_0" departPos="4.10" departSpeed="0.00" departDelay="6.40" arrival="76.00" arrivalLane="junction_end3_1" arrivalPos="486.40" arrivalSpeed="33.25" duration="68.60" routeLength="995.90" waitingTime="2.40" waitingCount="1" stopTime="0.00" timeLoss="38.63" rerouteNo="0" devices="tripinfo_flow1.1" vType="vtypeauto" speedFactor="1.86" vaporized=""/>
    <tripinfo id="flow1.2" depart="11.80" departLane="end1_junction_0" departPos="4.10" departSpeed="0.00" departDelay="9.80" arrival="78.80" arrivalLane="junction_end3_1" arrivalPos="486.40" arrivalSpeed="33.29" duration="67.00" routeLength="995.90" waitingTime="0.00" waitingCount="0" stopTime="0.00" timeLoss="37.06" rerouteNo="0" devices="tripinfo_flow1.2" vType="vtypeauto" speedFactor="1.88" vaporized=""/>
    <tripinfo id="flow0.6" depart="26.90" departLane="end1_junction_0" departPos="4.10" departSpeed="0.00" departDelay="20.90" arrival="78.80" arrivalLane="junction_end4_0" arrivalPos="486.40" arrivalSpeed="33.30" duration="51.90" routeLength="977.73" waitingTime="0.00" waitingCount="0" stopTime="0.00" timeLoss="22.13" rerouteNo="0" devices="tripinfo_flow0.6" vType="vtypeauto" speedFactor="1.97" vaporized=""/>
    <tripinfo id="flow1.3" depart="16.10" departLane="end1_junction_0" departPos="4.10" departSpeed="0.00" departDelay="13.10" arrival="81.60" arrivalLane="junction_end3_1" arrivalPos="486.40" arrivalSpeed="33.23" duration="65.50" routeLength="995.90" waitingTime="0.00" waitingCount="0" stopTime="0.00" timeLoss="35.57" rerouteNo="0" devices="tripinfo_flow1.3" vType="vtypeauto" speedFactor="1.98" vaporized=""/>
    <tripinfo id="flow0.7" depart="30.50" departLane="end1_junction_0" departPos="4.10" departSpeed="0.00" departDelay="23.50" arrival="83.30" arrivalLane="junction_end4_0" arrivalPos="486.40" arrivalSpeed="33.28" duration="52.80" routeLength="977.73" waitingTime="0.00" waitingCount="0" stopTime="0.00" timeLoss="22.95" rerouteNo="0" devices="tripinfo_flow0.7" vType="vtypeauto" speedFactor="2.00" vaporized=""/>
    <tripinfo id="flow1.4" depart="21.00" departLane="end1_junction_0" departPos="4.10" departSpeed="0.00" departDelay="17.00" arrival="84.40" arrivalLane="junction_end3_1" arrivalPos="486.40" arrivalSpeed="33.29" duration="63.40" routeLength="995.90" waitingTime="0.00" waitingCount="0" stopTime="0.00" timeLoss="33.46" rerouteNo="0" devices="tripinfo_flow1.4" vType="vtypeauto" speedFactor="1.87" vaporized=""/>
    <tripinfo id="flow1.5" depart="24.40" departLane="end1_junction_0" departPos="4.10" departSpeed="0.00" departDelay="19.40" arrival="87.20" arrivalLane="junction_end3_1" arrivalPos="486.40" arrivalSpeed="33.24" duration="62.80" routeLength="995.90" waitingTime="0.00" waitingCount="0" stopTime="0.00" timeLoss="32.84" rerouteNo="0" devices="tripinfo_flow1.5" vType="vtypeauto" speedFactor="1.93" vaporized=""/>
    <tripinfo id="flow0.8" depart="34.00" departLane="end1_junction_0" departPos="4.10" departSpeed="0.00" departDelay="26.00" arrival="87.20" arrivalLane="junction_end4_0" arrivalPos="486.40" arrivalSpeed="33.21" duration="53.20" routeLength="977.73" waitingTime="0.00" waitingCount="0" stopTime="0.00" timeLoss="23.33" rerouteNo="0" devices="tripinfo_flow0.8" vType="vtypeauto" speedFactor="1.85" vaporized=""/>
    <tripinfo id="flow1.6" depart="28.00" departLane="end1_junction_0" departPos="4.10" departSpeed="0.00" departDelay="22.00" arrival="89.90" arrivalLane="junction_end3_1" arrivalPos="486.40" arrivalSpeed="33.27" duration="61.90" routeLength="995.90" waitingTime="0.00" waitingCount="0" stopTime="0.00" timeLoss="32.02" rerouteNo="0" devices="tripinfo_flow1.6" vType="vtypeauto" speedFactor="1.90" vaporized=""/>
    <tripinfo id="flow0.9" depart="38.90" departLane="end1_junction_0" departPos="4.10" departSpeed="0.00" departDelay="29.90" arrival="91.80" arrivalLane="junction_end4_0" arrivalPos="486.40" arrivalSpeed="33.22" duration="52.90" routeLength="977.73" waitingTime="0.00" waitingCount="0" stopTime="0.00" timeLoss="23.12" rerouteNo="0" devices="tripinfo_flow0.9" vType="vtypeauto" speedFactor="1.90" vaporized=""/>
    <tripinfo id="flow1.7" depart="32.90" departLane="end1_junction_0" departPos="4.10" departSpeed="0.00" departDelay="25.90" arrival="92.70" arrivalLane="junction_end3_1" arrivalPos="486.40" arrivalSpeed="33.23" duration="59.80" routeLength="995.90" waitingTime="0.00" waitingCount="0" stopTime="0.00" timeLoss="29.90" rerouteNo="0" devices="tripinfo_flow1.7" vType="vtypeauto" speedFactor="1.90" vaporized=""/>
    <tripinfo id="flow1.8" depart="36.40" departLane="end1_junction_0" departPos="4.10" departSpeed="0.00" departDelay="28.40" arrival="95.50" arrivalLane="junction_end3_1" arrivalPos="486.40" arrivalSpeed="33.27" duration="59.10" routeLength="995.90" waitingTime="0.00" waitingCount="0" stopTime="0.00" timeLoss="29.18" rerouteNo="0" devices="tripinfo_flow1.8" vType="vtypeauto" speedFactor="1.85" vaporized=""/>
    <tripinfo id="flow0.10" depart="44.10" departLane="end1_junction_0" departPos="4.10" departSpeed="0.00" departDelay="34.10" arrival="96.50" arrivalLane="junction_end4_0" arrivalPos="486.40" arrivalSpeed="33.24" duration="52.40" routeLength="977.73" waitingTime="0.00" waitingCount="0" stopTime="0.00" timeLoss="22.57" rerouteNo="0" devices="tripinfo_flow0.10" vType="vtypeauto" speedFactor="1.94" vaporized=""/>
    <tripinfo id="flow1.9" depart="41.30" departLane="end1_junction_0" departPos="4.10" departSpeed="0.00" departDelay="32.30" arrival="98.30" arrivalLane="junction_end3_1" arrivalPos="486.40" arrivalSpeed="33.24" duration="57.00" routeLength="995.90" waitingTime="0.00" waitingCount="0" stopTime="0.00" timeLoss="27.07" rerouteNo="0" devices="tripinfo_flow1.9" vType="vtypeauto" speedFactor="1.97" vaporized=""/>
    <tripinfo id="flow1.10" depart="45.40" departLane="end1_junction_0" departPos="4.10" departSpeed="0.00" departDelay="35.40" arrival="101.10" arrivalLane="junction_end3_1" arrivalPos="486.40" arrivalSpeed="33.27" duration="55.70" routeLength="995.90" waitingTime="0.00" waitingCount="0" stopTime="0.00" timeLoss="25.76" rerouteNo="0" devices="tripinfo_flow1.10" vType="vtypeauto" speedFactor="1.88" vaporized=""/>
    <tripinfo id="flow0.11" depart="50.10" departLane="end1_junction_0" departPos="4.10" departSpeed="0.00" departDelay="39.10" arrival="101.80" arrivalLane="junction_end4_0" arrivalPos="486.40" arrivalSpeed="33.32" duration="51.70" routeLength="977.73" waitingTime="0.00" waitingCount="0" stopTime="0.00" timeLoss="21.84" rerouteNo="0" devices="tripinfo_flow0.11" vType="vtypeauto" speedFactor="1.91" vaporized=""/>
    <tripinfo id="flow1.11" depart="51.10" departLane="end1_junction_0" departPos="4.10" departSpeed="0.00" departDelay="40.10" arrival="103.90" arrivalLane="junction_end3_1" arrivalPos="486.40" arrivalSpeed="33.23" duration="52.80" routeLength="995.90" waitingTime="0.00" waitingCount="0" stopTime="0.00" timeLoss="22.89" rerouteNo="0" devices="tripinfo_flow1.11" vType="vtypeauto" speedFactor="1.97" vaporized=""/>
    <tripinfo id="flow0.12" depart="53.60" departLane="end1_junction_0" departPos="4.10" departSpeed="0.00" departDelay="41.60" arrival="105.60" arrivalLane="junction_end4_0" arrivalPos="486.40" arrivalSpeed="33.21" duration="52.00" routeLength="977.73" waitingTime="0.00" waitingCount="0" stopTime="0.00" timeLoss="22.23" rerouteNo="0" devices="tripinfo_flow0.12" vType="vtypeauto" speedFactor="1.96" vaporized=""/>
    <tripinfo id="flow1.12" depart="56.00" departLane="end1_junction_0" departPos="4.10" departSpeed="0.00" departDelay="44.00" arrival="107.50" arrivalLane="junction_end3_1" arrivalPos="486.40" arrivalSpeed="33.31" duration="51.50" routeLength="995.90" waitingTime="0.00" waitingCount="0" stopTime="0.00" timeLoss="21.56" rerouteNo="0" devices="tripinfo_flow1.12" vType="vtypeauto" speedFactor="1.98" vaporized=""/>
    <tripinfo id="flow0.13" depart="57.10" departLane="end1_junction_0" departPos="4.10" departSpeed="0.00" departDelay="44.10" arrival="109.30" arrivalLane="junction_end4_0" arrivalPos="486.40" arrivalSpeed="33.30" duration="52.20" routeLength="977.73" waitingTime="0.00" waitingCount="0" stopTime="0.00" timeLoss="22.46" rerouteNo="0" devices="tripinfo_flow0.13" vType="vtypeauto" speedFactor="2.00" vaporized=""/>
    <tripinfo id="flow1.13" depart="59.60" departLane="end1_junction_0" departPos="4.10" departSpeed="0.00" departDelay="46.60" arrival="111.60" arrivalLane="junction_end3_1" arrivalPos="486.40" arrivalSpeed="33.30" duration="52.00" routeLength="995.90" waitingTime="0.00" waitingCount="0" stopTime="0.00" timeLoss="22.05" rerouteNo="0" devices="tripinfo_flow1.13" vType="vtypeauto" speedFactor="1.97" vaporized=""/>
    <tripinfo id="flow0.14" depart="62.10" departLane="end1_junction_0" departPos="4.10" departSpeed="0.00" departDelay="48.10" arrival="115.80" arrivalLane="junction_end4_0" arrivalPos="486.40" arrivalSpeed="33.26" duration="53.70" routeLength="977.73" waitingTime="0.00" waitingCount="0" stopTime="0.00" timeLoss="23.86" rerouteNo="0" devices="tripinfo_flow0.14" vType="vtypeauto" speedFactor="1.89" vaporized=""/>
    <tripinfo id="flow0.15" depart="67.40" departLane="end1_junction_0" departPos="4.10" departSpeed="0.00" departDelay="52.40" arrival="120.50" arrivalLane="junction_end4_0" arrivalPos="486.40" arrivalSpeed="33.25" duration="53.10" routeLength="977.73" waitingTime="0.00" waitingCount="0" stopTime="0.00" timeLoss="23.23" rerouteNo="0" devices="tripinfo_flow0.15" vType="vtypeauto" speedFactor="1.91" vaporized=""/>
    <tripinfo id="flow2.0" depart="2.50" departLane="end1_junction_0" departPos="4.10" departSpeed="0.00" departDelay="2.50" arrival="122.90" arrivalLane="junction_end2_2" arrivalPos="486.40" arrivalSpeed="33.31" duration="120.40" routeLength="993.21" waitingTime="67.60" waitingCount="1" stopTime="0.00" timeLoss="90.00" rerouteNo="0" devices="tripinfo_flow2.0" vType="vtypeauto" speedFactor="1.89" vaporized=""/>
    <tripinfo id="flow2.1" depart="7.50" departLane="end1_junction_0" departPos="4.10" departSpeed="0.00" departDelay="6.50" arrival="125.80" arrivalLane="junction_end2_2" arrivalPos="486.40" arrivalSpeed="33.26" duration="118.30" routeLength="993.21" waitingTime="49.80" waitingCount="1" stopTime="0.00" timeLoss="87.98" rerouteNo="0" devices="tripinfo_flow2.1" vType="vtypeauto" speedFactor="1.99" vaporized=""/>
    <tripinfo id="flow0.16" depart="72.80" departLane="end1_junction_0" departPos="4.10" departSpeed="0.00" departDelay="56.80" arrival="126.50" arrivalLane="junction_end4_0" arrivalPos="486.40" arrivalSpeed="33.21" duration="53.70" routeLength="977.73" waitingTime="0.00" waitingCount="0" stopTime="0.00" timeLoss="23.89" rerouteNo="0" devices="tripinfo_flow0.16" vType="vtypeauto" speedFactor="1.95" vaporized=""/>
    <tripinfo id="flow2.2" depart="14.20" departLane="end1_junction_0" departPos="4.10" departSpeed="0.00" departDelay="12.20" arrival="128.60" arrivalLane="junction_end2_2" arrivalPos="486.40" arrivalSpeed="33.26" duration="114.40" routeLength="993.21" waitingTime="43.50" waitingCount="1" stopTime="0.00" timeLoss="84.06" rerouteNo="0" devices="tripinfo_flow2.2" vType="vtypeauto" speedFactor="1.94" vaporized=""/>
    <tripinfo id="flow0.17" depart="76.30" departLane="end1_junction_0" departPos="4.10" departSpeed="0.00" departDelay="59.30" arrival="130.80" arrivalLane="junction_end4_0" arrivalPos="486.40" arrivalSpeed="33.22" duration="54.50" routeLength="977.73" waitingTime="0.00" waitingCount="0" stopTime="0.00" timeLoss="24.60" rerouteNo="0" devices="tripinfo_flow0.17" vType="vtypeauto" speedFactor="1.93" vaporized=""/>
    <tripinfo id="flow2.3" depart="18.50" departLane="end1_junction_0" departPos="4.10" departSpeed="0.00" departDelay="15.50" arrival="131.40" arrivalLane="junction_end2_2" arrivalPos="486.40" arrivalSpeed="33.32" duration="112.90" routeLength="993.21" waitingTime="38.50" waitingCount="1" stopTime="0.00" timeLoss="82.53" rerouteNo="0" devices="tripinfo_flow2.3" vType="vtypeauto" speedFactor="1.89" vaporized=""/>
    <tripinfo id="flow2.4" depart="21.10" departLane="end1_junction_0" departPos="4.10" departSpeed="0.00" departDelay="17.10" arrival="134.20" arrivalLane="junction_end2_2" arrivalPos="486.40" arrivalSpeed="33.27" duration="113.10" routeLength="993.21" waitingTime="34.00" waitingCount="1" stopTime="0.00" timeLoss="82.75" rerouteNo="0" devices="tripinfo_flow2.4" vType="vtypeauto" speedFactor="1.92" vaporized=""/>
    <tripinfo id="flow0.18" depart="80.00" departLane="end1_junction_0" departPos="4.10" departSpeed="0.00" departDelay="62.00" arrival="135.10" arrivalLane="junction_end4_0" arrivalPos="486.40" arrivalSpeed="33.25" duration="55.10" routeLength="977.73" waitingTime="0.00" waitingCount="0" stopTime="0.00" timeLoss="25.26" rerouteNo="0" devices="tripinfo_flow0.18" vType="vtypeauto" speedFactor="1.99" vaporized=""/>
    <tripinfo id="flow2.5" depart="26.80" departLane="end1_junction_0" departPos="4.10" departSpeed="0.00" departDelay="21.80" arrival="137.00" arrivalLane="junction_end2_2" arrivalPos="486.40" arrivalSpeed="33.29" duration="110.20" routeLength="993.21" waitingTime="30.00" waitingCount="1" stopTime="0.00" timeLoss="79.88" rerouteNo="0" devices="tripinfo_flow2.5" vType="vtypeauto" speedFactor="1.99" vaporized=""/>
    <tripinfo id="flow0.19" depart="83.50" departLane="end1_junction_0" departPos="4.10" departSpeed="0.00" departDelay="64.50" arrival="138.80" arrivalLane="junction_end4_0" arrivalPos="486.40" arrivalSpeed="33.28" duration="55.30" routeLength="977.73" waitingTime="0.00" waitingCount="0" stopTime="0.00" timeLoss="25.49" rerouteNo="0" devices="tripinfo_flow0.19" vType="vtypeauto" speedFactor="1.96" vaporized=""/>
    <tripinfo id="flow2.6" depart="30.40" departLane="end1_junction_0" departPos="4.10" departSpeed="0.00" departDelay="24.40" arrival="139.70" arrivalLane="junction_end2_2" arrivalPos="486.40" arrivalSpeed="33.26" duration="109.30" routeLength="993.21" waitingTime="26.40" waitingCount="1" stopTime="0.00" timeLoss="79.01" rerouteNo="0" devices="tripinfo_flow2.6" vType="vtypeauto" speedFactor="1.96" vaporized=""/>
    <tripinfo id="flow2.7" depart="33.00" departLane="end1_junction_0" departPos="4.10" departSpeed="0.00" departDelay="26.00" arrival="142.50" arrivalLane="junction_end2_2" arrivalPos="486.40" arrivalSpeed="33.22" duration="109.50" routeLength="993.21" waitingTime="23.00" waitingCount="1" stopTime="0.00" timeLoss="79.15" rerouteNo="0" devices="tripinfo_flow2.7" vType="vtypeauto" speedFactor="1.88" vaporized=""/>
    <tripinfo id="flow0.20" depart="88.40" departLane="end1_junction_0" departPos="4.10" departSpeed="0.00" departDelay="68.40" arrival="143.20" arrivalLane="junction_end4_0" arrivalPos="486.40" arrivalSpeed="33.32" duration="54.80" routeLength="977.73" waitingTime="0.00" waitingCount="0" stopTime="0.00" timeLoss="24.91" rerouteNo="0" devices="tripinfo_flow0.20" vType="vtypeauto" speedFactor="1.73" vaporized=""/>
    <tripinfo id="flow2.8" depart="36.50" departLane="end1_junction_0" departPos="4.10" departSpeed="0.00" departDelay="28.50" arrival="145.30" arrivalLane="junction_end2_2" arrivalPos="486.40" arrivalSpeed="33.28" duration="108.80" routeLength="993.21" waitingTime="19.60" waitingCount="1" stopTime="0.00" timeLoss="78.49" rerouteNo="0" devices="tripinfo_flow2.8" vType="vtypeauto" speedFactor="2.00" vaporized=""/>
    <tripinfo id="flow0.21" depart="93.70" departLane="end1_junction_0" departPos="4.10" departSpeed="0.00" departDelay="72.70" arrival="147.70" arrivalLane="junction_end4_0" arrivalPos="486.40" arrivalSpeed="33.27" duration="54.00" routeLength="977.73" waitingTime="0.00" waitingCount="0" stopTime="0.00" timeLoss="24.14" rerouteNo="0" devices="tripinfo_flow0.21" vType="vtypeauto" speedFactor="1.96" vaporized=""/>
    <tripinfo id="flow2.9" depart="41.40" departLane="end1_junction_0" departPos="4.10" departSpeed="0.00" departDelay="32.40" arrival="148.00" arrivalLane="junction_end2_2" arrivalPos="486.40" arrivalSpeed="33.28" duration="106.60" routeLength="993.21" waitingTime="16.60" waitingCount="1" stopTime="0.00" timeLoss="76.36" rerouteNo="0" devices="tripinfo_flow2.9" vType="vtypeauto" speedFactor="1.99" vaporized=""/>
    <tripinfo id="flow2.10" depart="47.70" departLane="end1_junction_0" departPos="4.10" departSpeed="0.00" departDelay="37.70" arrival="150.80" arrivalLane="junction_end2_2" arrivalPos="486.40" arrivalSpeed="33.26" duration="103.10" routeLength="993.21" waitingTime="13.60" waitingCount="1" stopTime="0.00" timeLoss="72.77" rerouteNo="0" devices="tripinfo_flow2.10" vType="vtypeauto" speedFactor="1.91" vaporized=""/>
    <tripinfo id="flow0.22" depart="98.60" departLane="end1_junction_0" departPos="4.10" departSpeed="0.00" departDelay="76.60" arrival="152.50" arrivalLane="junction_end4_0" arrivalPos="486.40" arrivalSpeed="33.30" duration="53.90" routeLength="977.73" waitingTime="0.00" waitingCount="0" stopTime="0.00" timeLoss="24.06" rerouteNo="0" devices="tripinfo_flow0.22" vType="vtypeauto" speedFactor="1.88" vaporized=""/>
    <tripinfo id="flow2.11" depart="53.50" departLane="end1_junction_0" departPos="4.10" departSpeed="0.00" departDelay="42.50" arrival="153.60" arrivalLane="junction_end2_2" arrivalPos="486.40" arrivalSpeed="33.24" duration="100.10" routeLength="993.21" waitingTime="10.60" waitingCount="1" stopTime="0.00" timeLoss="69.76" rerouteNo="0" devices="tripinfo_flow2.11" vType="vtypeauto" speedFactor="1.94" vaporized=""/>
    <tripinfo id="flow2.12" depart="56.10" departLane="end1_junction_0" departPos="4.10" departSpeed="0.00" departDelay="44.10" arrival="156.40" arrivalLane="junction_end2_2" arrivalPos="486.40" arrivalSpeed="33.22" duration="100.30" routeLength="993.21" waitingTime="7.60" waitingCount="1" stopTime="0.00" timeLoss="69.93" rerouteNo="0" devices="tripinfo_flow2.12" vType="vtypeauto" speedFactor="1.98" vaporized=""/>
    <tripinfo id="flow2.13" depart="59.70" departLane="end1_junction_0" departPos="4.10" departSpeed="0.00" departDelay="46.70" arrival="159.10" arrivalLane="junction_end2_2" arrivalPos="486.40" arrivalSpeed="33.28" duration="99.40" routeLength="993.21" waitingTime="4.10" waitingCount="1" stopTime="0.00" timeLoss="69.11" rerouteNo="0" devices="tripinfo_flow2.13" vType="vtypeauto" speedFactor="1.98" vaporized=""/>
    <tripinfo id="flow0.23" depart="102.10" departLane="end1_junction_0" departPos="4.10" departSpeed="0.00" departDelay="79.10" arrival="159.90" arrivalLane="junction_end4_0" arrivalPos="486.40" arrivalSpeed="33.33" duration="57.80" routeLength="977.73" waitingTime="0.00" waitingCount="0" stopTime="0.00" timeLoss="27.96" rerouteNo="0" devices="tripinfo_flow0.23" vType="vtypeauto" speedFactor="1.98" vaporized=""/>
    <tripinfo id="flow2.14" depart="64.60" departLane="end1_junction_0" departPos="4.10" departSpeed="0.00" departDelay="50.60" arrival="161.90" arrivalLane="junction_end2_2" arrivalPos="486.40" arrivalSpeed="33.28" duration="97.30" routeLength="993.21" waitingTime="0.00" waitingCount="0" stopTime="0.00" timeLoss="66.96" rerouteNo="0" devices="tripinfo_flow2.14" vType="vtypeauto" speedFactor="1.92" vaporized=""/>
    <tripinfo id="flow0.24" depart="105.80" departLane="end1_junction_0" departPos="4.10" departSpeed="0.00" departDelay="81.80" arrival="163.70" arrivalLane="junction_end4_0" arrivalPos="486.40" arrivalSpeed="33.32" duration="57.90" routeLength="977.73" waitingTime="0.00" waitingCount="0" stopTime="0.00" timeLoss="28.01" rerouteNo="0" devices="tripinfo_flow0.24" vType="vtypeauto" speedFactor="1.89" vaporized=""/>
    <tripinfo id="flow2.15" depart="70.40" departLane="end1_junction_0" departPos="4.10" departSpeed="0.00" departDelay="55.40" arrival="164.70" arrivalLane="junction_end2_2" arrivalPos="486.40" arrivalSpeed="33.23" duration="94.30" routeLength="993.21" waitingTime="0.00" waitingCount="0" stopTime="0.00" timeLoss="63.94" rerouteNo="0" devices="tripinfo_flow2.15" vType="vtypeauto" speedFactor="1.97" vaporized=""/>
    <tripinfo id="flow0.25" depart="109.40" departLane="end1_junction_0" departPos="4.10" departSpeed="0.00" departDelay="84.40" arrival="167.40" arrivalLane="junction_end4_0" arrivalPos="486.40" arrivalSpeed="33.29" duration="58.00" routeLength="977.73" waitingTime="0.00" waitingCount="0" stopTime="0.00" timeLoss="28.11" rerouteNo="0" devices="tripinfo_flow0.25" vType="vtypeauto" speedFactor="1.94" vaporized=""/>
    <tripinfo id="flow0.26" depart="114.30" departLane="end1_junction_0" departPos="4.10" departSpeed="0.00" departDelay="88.30" arrival="170.50" arrivalLane="junction_end4_0" arrivalPos="486.40" arrivalSpeed="33.30" duration="56.20" routeLength="977.73" waitingTime="0.00" waitingCount="0" stopTime="0.00" timeLoss="26.35" rerouteNo="0" devices="tripinfo_flow0.26" vType="vtypeauto" speedFactor="1.97" vaporized=""/>
    <tripinfo id="flow0.27" depart="119.80" departLane="end1_junction_0" departPos="4.10" departSpeed="0.00" departDelay="92.80" arrival="174.20" arrivalLane="junction_end4_0" arrivalPos="486.40" arrivalSpeed="33.21" duration="54.40" routeLength="977.73" waitingTime="0.00" waitingCount="0" stopTime="0.00" timeLoss="24.63" rerouteNo="0" devices="tripinfo_flow0.27" vType="vtypeauto" speedFactor="1.93" vaporized=""/>
    <tripinfo id="flow0.29" depart="128.20" departLane="end1_junction_0" departPos="4.10" departSpeed="0.00" departDelay="99.20" arrival="182.60" arrivalLane="junction_end4_0" arrivalPos="486.40" arrivalSpeed="33.26" duration="54.40" routeLength="977.73" waitingTime="0.00" waitingCount="0" stopTime="0.00" timeLoss="24.56" rerouteNo="0" devices="tripinfo_flow0.29" vType="vtypeauto" speedFactor="1.87" vaporized=""/>
    <tripinfo id="flow0.28" depart="124.10" departLane="end1_junction_0" departPos="4.10" departSpeed="0.00" departDelay="96.10" arrival="186.70" arrivalLane="junction_end4_0" arrivalPos="486.40" arrivalSpeed="33.25" duration="62.60" routeLength="977.73" waitingTime="0.00" waitingCount="0" stopTime="0.00" timeLoss="32.76" rerouteNo="0" devices="tripinfo_flow0.28" vType="vtypeauto" speedFactor="1.87" vaporized=""/>
    <tripinfo id="flow0.30" depart="133.20" departLane="end1_junction_0" departPos="4.10" departSpeed="0.00" departDelay="103.20" arrival="190.80" arrivalLane="junction_end4_0" arrivalPos="486.40" arrivalSpeed="33.32" duration="57.60" routeLength="977.73" waitingTime="0.00" waitingCount="0" stopTime="0.00" timeLoss="27.81" rerouteNo="0" devices="tripinfo_flow0.30" vType="vtypeauto" speedFactor="1.98" vaporized=""/>
    <tripinfo id="flow0.31" depart="136.70" departLane="end1_junction_0" departPos="4.10" departSpeed="0.00" departDelay="105.70" arrival="194.60" arrivalLane="junction_end4_0" arrivalPos="486.40" arrivalSpeed="33.21" duration="57.90" routeLength="977.73" waitingTime="0.00" waitingCount="0" stopTime="0.00" timeLoss="28.07" rerouteNo="0" devices="tripinfo_flow0.31" vType="vtypeauto" speedFactor="1.91" vaporized=""/>
    <tripinfo id="flow0.32" depart="140.30" departLane="end1_junction_0" departPos="4.10" departSpeed="0.00" departDelay="108.30" arrival="198.50" arrivalLane="junction_end4_0" arrivalPos="486.40" arrivalSpeed="33.21" duration="58.20" routeLength="977.73" waitingTime="0.00" waitingCount="0" stopTime="0.00" timeLoss="28.35" rerouteNo="0" devices="tripinfo_flow0.32" vType="vtypeauto" speedFactor="1.97" vaporized=""/>
    <tripinfo id="flow0.33" depart="144.80" departLane="end1_junction_0" departPos="4.10" departSpeed="0.00" departDelay="111.80" arrival="202.30" arrivalLane="junction_end4_0" arrivalPos="486.40" arrivalSpeed="33.21" duration="57.50" routeLength="977.73" waitingTime="0.00" waitingCount="0" stopTime="0.00" timeLoss="27.69" rerouteNo="0" devices="tripinfo_flow0.33" vType="vtypeauto" speedFactor="1.91" vaporized=""/>
    <tripinfo id="flow0.34" depart="149.70" departLane="end1_junction_0" departPos="4.10" departSpeed="0.00" departDelay="115.70" arrival="206.20" arrivalLane="junction_end4_0" arrivalPos="486.40" arrivalSpeed="33.28" duration="56.50" routeLength="977.73" waitingTime="0.00" waitingCount="0" stopTime="0.00" timeLoss="26.73" rerouteNo="0" devices="tripinfo_flow0.34" vType="vtypeauto" speedFactor="1.95" vaporized=""/>
    <tripinfo id="flow0.35" depart="154.70" departLane="end1_junction_0" departPos="4.10" departSpeed="0.00" departDelay="119.70" arrival="209.90" arrivalLane="junction_end4_0" arrivalPos="486.40" arrivalSpeed="33.31" duration="55.20" routeLength="977.73" waitingTime="0.00" waitingCount="0" stopTime="0.00" timeLoss="25.32" rerouteNo="0" devices="tripinfo_flow0.35" vType="vtypeauto" speedFactor="1.97" vaporized=""/>
    <tripinfo id="flow0.36" depart="160.10" departLane="end1_junction_0" departPos="4.10" departSpeed="0.00" departDelay="124.10" arrival="214.40" arrivalLane="junction_end4_0" arrivalPos="486.40" arrivalSpeed="33.29" duration="54.30" routeLength="977.73" waitingTime="0.00" waitingCount="0" stopTime="0.00" timeLoss="24.45" rerouteNo="0" devices="tripinfo_flow0.36" vType="vtypeauto" speedFactor="1.99" vaporized=""/>
    <tripinfo id="flow0.37" depart="164.90" departLane="end1_junction_0" departPos="4.10" departSpeed="0.00" departDelay="127.90" arrival="219.70" arrivalLane="junction_end4_0" arrivalPos="486.40" arrivalSpeed="33.26" duration="54.80" routeLength="977.73" waitingTime="0.00" waitingCount="0" stopTime="0.00" timeLoss="24.85" rerouteNo="0" devices="tripinfo_flow0.37" vType="vtypeauto" speedFactor="1.71" vaporized=""/>
    <tripinfo id="flow0.38" depart="168.40" departLane="end1_junction_0" departPos="4.10" departSpeed="0.00" departDelay="130.40" arrival="226.70" arrivalLane="junction_end4_0" arrivalPos="486.40" arrivalSpeed="33.27" duration="58.30" routeLength="977.73" waitingTime="0.00" waitingCount="0" stopTime="0.00" timeLoss="28.32" rerouteNo="0" devices="tripinfo_flow0.38" vType="vtypeauto" speedFactor="1.75" vaporized=""/>