<?xml version="1.0" encoding="UTF-8"?>

<!-- generated on 2024-04-20 14:13:44 by Eclipse SUMO GUI Version 1.19.0
<configuration xmlns:xsi="http://www.w3.org/2001/XMLSchema-instance" xsi:noNamespaceSchemaLocation="http://sumo.dlr.de/xsd/sumoConfiguration.xsd">

    <input>
        <net-file value="sim_cfg/intelligent_traffic.net.xml"/>
        <route-files value="sim_cfg/intelligent_traffic.rou.xml"/>
    </input>

    <output>
        <tripinfo-output value="sim_cfg/tripinfo.xml"/>
    </output>

    <time>
        <begin value="0"/>
        <end value="500"/>
        <step-length value="0.1"/>
    </time>

    <traci_server>
        <remote-port value="50047"/>
    </traci_server>

    <gui_only>
        <gui-settings-file value="sim_cfg/gui_settings.xml"/>
    </gui_only>

</configuration>
-->

<tripinfos xmlns:xsi="http://www.w3.org/2001/XMLSchema-instance" xsi:noNamespaceSchemaLocation="http://sumo.dlr.de/xsd/tripinfo_file.xsd">
    <tripinfo id="flow0.0" depart="0.00" departLane="end1_junction_0" departPos="4.10" departSpeed="0.00" departDelay="0.00" arrival="37.50" arrivalLane="junction_end4_0" arrivalPos="486.40" arrivalSpeed="35.78" duration="37.50" routeLength="977.73" waitingTime="0.00" waitingCount="0" stopTime="0.00" timeLoss="9.22" rerouteNo="0" devices="tripinfo_flow0.0" vType="auto" speedFactor="1.06" vaporized=""/>
    <tripinfo id="flow0.1" depart="3.10" departLane="end1_junction_0" departPos="4.10" departSpeed="0.00" departDelay="2.10" arrival="41.60" arrivalLane="junction_end4_0" arrivalPos="486.40" arrivalSpeed="35.75" duration="38.50" routeLength="977.73" waitingTime="0.00" waitingCount="0" stopTime="0.00" timeLoss="10.22" rerouteNo="0" devices="tripinfo_flow0.1" vType="auto" speedFactor="1.08" vaporized=""/>
    <tripinfo id="flow0.2" depart="6.20" departLane="end1_junction_0" departPos="4.10" departSpeed="0.00" departDelay="4.20" arrival="45.10" arrivalLane="junction_end4_0" arrivalPos="486.40" arrivalSpeed="35.78" duration="38.90" routeLength="977.73" waitingTime="0.00" waitingCount="0" stopTime="0.00" timeLoss="10.71" rerouteNo="0" devices="tripinfo_flow0.2" vType="auto" speedFactor="1.05" vaporized=""/>
    <tripinfo id="flow0.3" depart="9.30" departLane="end1_junction_0" departPos="4.10" departSpeed="0.00" departDelay="6.30" arrival="50.10" arrivalLane="junction_end4_0" arrivalPos="486.40" arrivalSpeed="34.03" duration="40.80" routeLength="977.73" waitingTime="0.00" waitingCount="0" stopTime="0.00" timeLoss="10.88" rerouteNo="0" devices="tripinfo_flow0.3" vType="auto" speedFactor="0.86" vaporized=""/>
    <tripinfo id="flow0.4" depart="12.50" departLane="end1_junction_0" departPos="4.10" departSpeed="0.00" departDelay="8.50" arrival="52.30" arrivalLane="junction_end4_0" arrivalPos="486.40" arrivalSpeed="35.93" duration="39.80" routeLength="977.73" waitingTime="0.00" waitingCount="0" stopTime="0.00" timeLoss="11.45" rerouteNo="0" devices="tripinfo_flow0.4" vType="auto" speedFactor="1.05" vaporized=""/>
    <tripinfo id="flow0.5" depart="16.30" departLane="end1_junction_0" departPos="4.10" departSpeed="0.00" departDelay="11.30" arrival="56.30" arrivalLane="junction_end4_0" arrivalPos="486.40" arrivalSpeed="35.81" duration="40.00" routeLength="977.73" waitingTime="0.00" waitingCount="0" stopTime="0.00" timeLoss="11.54" rerouteNo="0" devices="tripinfo_flow0.5" vType="auto" speedFactor="0.93" vaporized=""/>
    <tripinfo id="flow0.6" depart="18.70" departLane="end1_junction_0" departPos="4.10" departSpeed="0.00" departDelay="12.70" arrival="59.50" arrivalLane="junction_end4_0" arrivalPos="486.40" arrivalSpeed="35.75" duration="40.80" routeLength="977.73" waitingTime="0.00" waitingCount="0" stopTime="0.00" timeLoss="12.35" rerouteNo="0" devices="tripinfo_flow0.6" vType="auto" speedFactor="0.94" vaporized=""/>
    <tripinfo id="flow0.7" depart="21.80" departLane="end1_junction_0" departPos="4.10" departSpeed="0.00" departDelay="14.80" arrival="62.30" arrivalLane="junction_end4_0" arrivalPos="486.40" arrivalSpeed="35.76" duration="40.50" routeLength="977.73" waitingTime="0.00" waitingCount="0" stopTime="0.00" timeLoss="12.14" rerouteNo="0" devices="tripinfo_flow0.7" vType="auto" speedFactor="1.01" vaporized=""/>
    <tripinfo id="flow0.8" depart="24.90" departLane="end1_junction_0" departPos="4.10" departSpeed="0.00" departDelay="16.90" arrival="67.00" arrivalLane="junction_end4_0" arrivalPos="486.40" arrivalSpeed="32.98" duration="42.10" routeLength="977.73" waitingTime="0.00" waitingCount="0" stopTime="0.00" timeLoss="11.09" rerouteNo="0" devices="tripinfo_flow0.8" vType="auto" speedFactor="0.83" vaporized=""/>
    <tripinfo id="flow0.9" depart="28.00" departLane="end1_junction_0" departPos="4.10" departSpeed="0.00" departDelay="19.00" arrival="69.30" arrivalLane="junction_end4_0" arrivalPos="486.40" arrivalSpeed="35.80" duration="41.30" routeLength="977.73" waitingTime="0.00" waitingCount="0" stopTime="0.00" timeLoss="12.86" rerouteNo="0" devices="tripinfo_flow0.9" vType="auto" speedFactor="0.95" vaporized=""/>
    <tripinfo id="flow0.10" depart="31.70" departLane="end1_junction_0" departPos="4.10" departSpeed="0.00" departDelay="21.70" arrival="71.70" arrivalLane="junction_end4_0" arrivalPos="486.40" arrivalSpeed="35.85" duration="40.00" routeLength="977.73" waitingTime="0.00" waitingCount="0" stopTime="0.00" timeLoss="11.90" rerouteNo="0" devices="tripinfo_flow0.10" vType="auto" speedFactor="1.18" vaporized=""/>
    <tripinfo id="flow0.11" depart="35.60" departLane="end1_junction_0" departPos="4.10" departSpeed="0.00" departDelay="24.60" arrival="75.70" arrivalLane="junction_end4_0" arrivalPos="486.40" arrivalSpeed="35.82" duration="40.10" routeLength="977.73" waitingTime="0.00" waitingCount="0" stopTime="0.00" timeLoss="11.87" rerouteNo="0" devices="tripinfo_flow0.11" vType="auto" speedFactor="1.17" vaporized=""/>
    <tripinfo id="flow0.12" depart="38.70" departLane="end1_junction_0" departPos="4.10" departSpeed="0.00" departDelay="26.70" arrival="79.70" arrivalLane="junction_end4_0" arrivalPos="486.40" arrivalSpeed="35.75" duration="41.00" routeLength="977.73" waitingTime="0.00" waitingCount="0" stopTime="0.00" timeLoss="12.62" rerouteNo="0" devices="tripinfo_flow0.12" vType="auto" speedFactor="0.97" vaporized=""/>
    <tripinfo id="flow0.13" depart="42.20" departLane="end1_junction_0" departPos="4.10" departSpeed="0.00" departDelay="29.20" arrival="83.50" arrivalLane="junction_end4_0" arrivalPos="486.40" arrivalSpeed="35.93" duration="41.30" routeLength="977.73" waitingTime="0.00" waitingCount="0" stopTime="0.00" timeLoss="12.88" rerouteNo="0" devices="tripinfo_flow0.13" vType="auto" speedFactor="0.90" vaporized=""/>
    <tripinfo id="flow0.14" depart="44.60" departLane="end1_junction_0" departPos="4.10" departSpeed="0.00" departDelay="30.60" arrival="86.10" arrivalLane="junction_end4_0" arrivalPos="486.40" arrivalSpeed="35.93" duration="41.50" routeLength="977.73" waitingTime="0.00" waitingCount="0" stopTime="0.00" timeLoss="13.22" rerouteNo="0" devices="tripinfo_flow0.14" vType="auto" speedFactor="1.09" vaporized=""/>
    <tripinfo id="flow0.15" depart="47.70" departLane="end1_junction_0" departPos="4.10" departSpeed="0.00" departDelay="32.70" arrival="89.30" arrivalLane="junction_end4_0" arrivalPos="486.40" arrivalSpeed="35.88" duration="41.60" routeLength="977.73" waitingTime="0.00" waitingCount="0" stopTime="0.00" timeLoss="13.35" rerouteNo="0" devices="tripinfo_flow0.15" vType="auto" speedFactor="1.09" vaporized=""/>
    <tripinfo id="flow0.16" depart="50.80" departLane="end1_junction_0" departPos="4.10" departSpeed="0.00" departDelay="34.80" arrival="93.50" arrivalLane="junction_end4_0" arrivalPos="486.40" arrivalSpeed="34.98" duration="42.70" routeLength="977.73" waitingTime="0.00" waitingCount="0" stopTime="0.00" timeLoss="13.43" rerouteNo="0" devices="tripinfo_flow0.16" vType="auto" speedFactor="0.88" vaporized=""/>
    <tripinfo id="flow0.17" depart="54.20" departLane="end1_junction_0" departPos="4.10" departSpeed="0.00" departDelay="37.20" arrival="95.80" arrivalLane="junction_end4_0" arrivalPos="486.40" arrivalSpeed="35.82" duration="41.60" routeLength="977.73" waitingTime="0.00" waitingCount="0" stopTime="0.00" timeLoss="13.41" rerouteNo="0" devices="tripinfo_flow0.17" vType="auto" speedFactor="1.17" vaporized=""/>
    <tripinfo id="flow1.0" depart="1.50" departLane="end1_junction_0" departPos="4.10" departSpeed="0.00" departDelay="1.50" arrival="98.80" arrivalLane="junction_end3_1" arrivalPos="486.40" arrivalSpeed="35.79" duration="97.30" routeLength="995.90" waitingTime="58.70" waitingCount="1" stopTime="0.00" timeLoss="69.63" rerouteNo="0" devices="tripinfo_flow1.0" vType="auto" speedFactor="0.94" vaporized=""/>
    <tripinfo id="flow0.18" depart="56.70" departLane="end1_junction_0" departPos="4.10" departSpeed="0.00" departDelay="38.70" arrival="99.00" arrivalLane="junction_end4_0" arrivalPos="486.40" arrivalSpeed="35.82" duration="42.30" routeLength="977.73" waitingTime="0.00" waitingCount="0" stopTime="0.00" timeLoss="13.92" rerouteNo="0" devices="tripinfo_flow0.18" vType="auto" speedFactor="1.00" vaporized=""/>
    <tripinfo id="flow0.19" depart="59.80" departLane="end1_junction_0" departPos="4.10" departSpeed="0.00" departDelay="40.80" arrival="102.00" arrivalLane="junction_end4_0" arrivalPos="486.40" arrivalSpeed="35.94" duration="42.20" routeLength="977.73" waitingTime="0.00" waitingCount="0" stopTime="0.00" timeLoss="14.06" rerouteNo="0" devices="tripinfo_flow0.19" vType="auto" speedFactor="1.14" vaporized=""/>
    <tripinfo id="flow0.20" depart="63.30" departLane="end1_junction_0" departPos="4.10" departSpeed="0.00" departDelay="43.30" arrival="105.40" arrivalLane="junction_end4_0" arrivalPos="486.40" arrivalSpeed="35.79" duration="42.10" routeLength="977.73" waitingTime="0.00" waitingCount="0" stopTime="0.00" timeLoss="13.91" rerouteNo="0" devices="tripinfo_flow0.20" vType="auto" speedFactor="1.08" vaporized=""/>
    <tripinfo id="flow0.21" depart="65.70" departLane="end1_junction_0" departPos="4.10" departSpeed="0.00" departDelay="44.70" arrival="108.50" arrivalLane="junction_end4_0" arrivalPos="486.40" arrivalSpeed="35.78" duration="42.80" routeLength="977.73" waitingTime="0.00" waitingCount="0" stopTime="0.00" timeLoss="14.40" rerouteNo="0" devices="tripinfo_flow0.21" vType="auto" speedFactor="0.99" vaporized=""/>
    <tripinfo id="flow0.22" depart="68.80" departLane="end1_junction_0" departPos="4.10" departSpeed="0.00" departDelay="46.80" arrival="112.20" arrivalLane="junction_end4_0" arrivalPos="486.40" arrivalSpeed="35.89" duration="43.40" routeLength="977.73" waitingTime="0.00" waitingCount="0" stopTime="0.00" timeLoss="14.96" rerouteNo="0" devices="tripinfo_flow0.22" vType="auto" speedFactor="0.91" vaporized=""/>
    <tripinfo id="flow1.1" depart="4.60" departLane="end1_junction_0" departPos="4.10" departSpeed="0.00" departDelay="3.60" arrival="112.90" arrivalLane="junction_end3_0" arrivalPos="486.40" arrivalSpeed="13.96" duration="108.30" routeLength="995.90" waitingTime="52.40" waitingCount="1" stopTime="0.00" timeLoss="57.86" rerouteNo="0" devices="tripinfo_flow1.1" vType="auto" speedFactor="0.35" vaporized=""/>
    <tripinfo id="flow0.23" depart="72.20" departLane="end1_junction_0" departPos="4.10" departSpeed="0.00" departDelay="49.20" arrival="115.00" arrivalLane="junction_end4_0" arrivalPos="486.40" arrivalSpeed="35.84" duration="42.80" routeLength="977.73" waitingTime="0.00" waitingCount="0" stopTime="0.00" timeLoss="14.59" rerouteNo="0" devices="tripinfo_flow0.23" vType="auto" speedFactor="1.02" vaporized=""/>
    <tripinfo id="flow1.2" depart="7.70" departLane="end1_junction_0" departPos="4.10" departSpeed="0.00" departDelay="5.70" arrival="115.20" arrivalLane="junction_end3_0" arrivalPos="486.40" arrivalSpeed="13.92" duration="107.50" routeLength="995.90" waitingTime="48.40" waitingCount="1" stopTime="0.00" timeLoss="56.66" rerouteNo="0" devices="tripinfo_flow1.2" vType="auto" speedFactor="0.35" vaporized=""/>
    <tripinfo id="flow1.3" depart="10.80" departLane="end1_junction_0" departPos="4.10" departSpeed="0.00" departDelay="7.80" arrival="117.10" arrivalLane="junction_end3_0" arrivalPos="486.40" arrivalSpeed="13.87" duration="106.30" routeLength="995.90" waitingTime="45.40" waitingCount="1" stopTime="0.00" timeLoss="55.47" rerouteNo="0" devices="tripinfo_flow1.3" vType="auto" speedFactor="0.35" vaporized=""/>
    <tripinfo id="flow0.24" depart="74.70" departLane="end1_junction_0" departPos="4.10" departSpeed="0.00" departDelay="50.70" arrival="118.10" arrivalLane="junction_end4_0" arrivalPos="486.40" arrivalSpeed="35.78" duration="43.40" routeLength="977.73" waitingTime="0.00" waitingCount="0" stopTime="0.00" timeLoss="14.97" rerouteNo="0" devices="tripinfo_flow0.24" vType="auto" speedFactor="0.94" vaporized=""/>
    <tripinfo id="flow1.4" depart="14.00" departLane="end1_junction_0" departPos="4.10" departSpeed="0.00" departDelay="10.00" arrival="118.70" arrivalLane="junction_end3_1" arrivalPos="486.40" arrivalSpeed="13.86" duration="104.70" routeLength="995.90" waitingTime="42.40" waitingCount="1" stopTime="0.00" timeLoss="53.60" rerouteNo="0" devices="tripinfo_flow1.4" vType="auto" speedFactor="0.35" vaporized=""/>
    <tripinfo id="flow1.5" depart="17.10" departLane="end1_junction_0" departPos="4.10" departSpeed="0.00" departDelay="12.10" arrival="120.00" arrivalLane="junction_end3_0" arrivalPos="486.40" arrivalSpeed="14.00" duration="102.90" routeLength="995.90" waitingTime="39.10" waitingCount="1" stopTime="0.00" timeLoss="51.29" rerouteNo="0" devices="tripinfo_flow1.5" vType="auto" speedFactor="0.35" vaporized=""/>
    <tripinfo id="flow1.6" depart="20.20" departLane="end1_junction_0" departPos="4.10" departSpeed="0.00" departDelay="14.20" arrival="120.90" arrivalLane="junction_end3_1" arrivalPos="486.40" arrivalSpeed="13.91" duration="100.70" routeLength="995.90" waitingTime="36.30" waitingCount="1" stopTime="0.00" timeLoss="49.20" rerouteNo="0" devices="tripinfo_flow1.6" vType="auto" speedFactor="0.35" vaporized=""/>
    <tripinfo id="flow0.25" depart="77.80" departLane="end1_junction_0" departPos="4.10" departSpeed="0.00" departDelay="52.80" arrival="120.90" arrivalLane="junction_end4_0" arrivalPos="486.40" arrivalSpeed="36.00" duration="43.10" routeLength="977.73" waitingTime="0.00" waitingCount="0" stopTime="0.00" timeLoss="14.67" rerouteNo="0" devices="tripinfo_flow0.25" vType="auto" speedFactor="0.98" vaporized=""/>
    <tripinfo id="flow1.7" depart="23.30" departLane="end1_junction_0" departPos="4.10" departSpeed="0.00" departDelay="16.30" arrival="122.30" arrivalLane="junction_end3_2" arrivalPos="486.40" arrivalSpeed="13.89" duration="99.00" routeLength="995.90" waitingTime="33.30" waitingCount="1" stopTime="0.00" timeLoss="47.23" rerouteNo="0" devices="tripinfo_flow1.7" vType="auto" speedFactor="0.35" vaporized=""/>
    <tripinfo id="flow1.8" depart="26.40" departLane="end1_junction_0" departPos="4.10" departSpeed="0.00" departDelay="18.40" arrival="123.50" arrivalLane="junction_end3_1" arrivalPos="486.40" arrivalSpeed="13.79" duration="97.10" routeLength="995.90" waitingTime="30.40" waitingCount="1" stopTime="0.00" timeLoss="44.73" rerouteNo="0" devices="tripinfo_flow1.8" vType="auto" speedFactor="0.35" vaporized=""/>
    <tripinfo id="flow0.26" depart="80.90" departLane="end1_junction_0" departPos="4.10" departSpeed="0.00" departDelay="54.90" arrival="123.60" arrivalLane="junction_end4_0" arrivalPos="486.40" arrivalSpeed="35.97" duration="42.70" routeLength="977.73" waitingTime="0.00" waitingCount="0" stopTime="0.00" timeLoss="14.39" rerouteNo="0" devices="tripinfo_flow0.26" vType="auto" speedFactor="1.01" vaporized=""/>
    <tripinfo id="flow1.12" depart="40.10" departLane="end1_junction_0" departPos="4.10" departSpeed="0.00" departDelay="28.10" arrival="124.30" arrivalLane="junction_end3_0" arrivalPos="486.40" arrivalSpeed="13.78" duration="84.20" routeLength="995.90" waitingTime="17.50" waitingCount="1" stopTime="0.00" timeLoss="31.38" rerouteNo="0" devices="tripinfo_flow1.12" vType="auto" speedFactor="0.35" vaporized=""/>
    <tripinfo id="flow1.9" depart="29.50" departLane="end1_junction_0" departPos="4.10" departSpeed="0.00" departDelay="20.50" arrival="124.60" arrivalLane="junction_end3_2" arrivalPos="486.40" arrivalSpeed="13.97" duration="95.10" routeLength="995.90" waitingTime="27.50" waitingCount="1" stopTime="0.00" timeLoss="42.93" rerouteNo="0" devices="tripinfo_flow1.9" vType="auto" speedFactor="0.35" vaporized=""/>
    <tripinfo id="flow1.15" depart="49.20" departLane="end1_junction_0" departPos="4.10" departSpeed="0.00" departDelay="34.20" arrival="125.60" arrivalLane="junction_end3_1" arrivalPos="486.40" arrivalSpeed="13.90" duration="76.40" routeLength="995.90" waitingTime="8.70" waitingCount="1" stopTime="0.00" timeLoss="22.96" rerouteNo="0" devices="tripinfo_flow1.15" vType="auto" speedFactor="0.35" vaporized=""/>
    <tripinfo id="flow1.10" depart="32.60" departLane="end1_junction_0" departPos="4.10" departSpeed="0.00" departDelay="22.60" arrival="126.00" arrivalLane="junction_end3_2" arrivalPos="486.40" arrivalSpeed="13.98" duration="93.40" routeLength="995.90" waitingTime="24.60" waitingCount="1" stopTime="0.00" timeLoss="41.01" rerouteNo="0" devices="tripinfo_flow1.10" vType="auto" speedFactor="0.35" vaporized=""/>
    <tripinfo id="flow0.27" depart="83.40" departLane="end1_junction_0" departPos="4.10" departSpeed="0.00" departDelay="56.40" arrival="126.60" arrivalLane="junction_end4_0" arrivalPos="486.40" arrivalSpeed="35.76" duration="43.20" routeLength="977.73" waitingTime="0.00" waitingCount="0" stopTime="0.00" timeLoss="14.83" rerouteNo="0" devices="tripinfo_flow0.27" vType="auto" speedFactor="1.00" vaporized=""/>
    <tripinfo id="flow1.18" depart="58.20" departLane="end1_junction_0" departPos="4.10" departSpeed="0.00" departDelay="40.20" arrival="126.80" arrivalLane="junction_end3_1" arrivalPos="486.40" arrivalSpeed="18.65" duration="68.60" routeLength="995.90" waitingTime="0.00" waitingCount="0" stopTime="0.00" timeLoss="40.92" rerouteNo="0" devices="tripinfo_flow1.18" vType="auto" speedFactor="1.00" vaporized=""/>
    <tripinfo id="flow1.17" depart="55.10" departLane="end1_junction_0" departPos="4.10" departSpeed="0.00" departDelay="38.10" arrival="126.90" arrivalLane="junction_end3_0" arrivalPos="486.40" arrivalSpeed="13.99" duration="71.80" routeLength="995.90" waitingTime="2.80" waitingCount="1" stopTime="0.00" timeLoss="17.87" rerouteNo="0" devices="tripinfo_flow1.17" vType="auto" speedFactor="0.35" vaporized=""/>
    <tripinfo id="flow1.11" depart="37.10" departLane="end1_junction_0" departPos="4.10" departSpeed="0.00" departDelay="26.10" arrival="127.40" arrivalLane="junction_end3_2" arrivalPos="486.40" arrivalSpeed="13.91" duration="90.30" routeLength="995.90" waitingTime="20.80" waitingCount="1" stopTime="0.00" timeLoss="37.68" rerouteNo="0" devices="tripinfo_flow1.11" vType="auto" speedFactor="0.35" vaporized=""/>
    <tripinfo id="flow1.19" depart="61.30" departLane="end1_junction_0" departPos="4.10" departSpeed="0.00" departDelay="42.30" arrival="128.00" arrivalLane="junction_end3_1" arrivalPos="486.40" arrivalSpeed="18.50" duration="66.70" routeLength="995.90" waitingTime="0.00" waitingCount="0" stopTime="0.00" timeLoss="39.02" rerouteNo="0" devices="tripinfo_flow1.19" vType="auto" speedFactor="1.02" vaporized=""/>
    <tripinfo id="flow1.20" depart="64.10" departLane="end1_junction_0" departPos="4.10" departSpeed="0.00" departDelay="44.10" arrival="128.10" arrivalLane="junction_end3_0" arrivalPos="486.40" arrivalSpeed="18.31" duration="64.00" routeLength="995.90" waitingTime="0.00" waitingCount="0" stopTime="0.00" timeLoss="36.31" rerouteNo="0" devices="tripinfo_flow1.20" vType="auto" speedFactor="1.12" vaporized=""/>
    <tripinfo id="flow1.13" depart="43.00" departLane="end1_junction_0" departPos="4.10" departSpeed="0.00" departDelay="30.00" arrival="128.80" arrivalLane="junction_end3_2" arrivalPos="486.40" arrivalSpeed="13.87" duration="85.80" routeLength="995.90" waitingTime="14.50" waitingCount="1" stopTime="0.00" timeLoss="32.73" rerouteNo="0" devices="tripinfo_flow1.13" vType="auto" speedFactor="0.35" vaporized=""/>
    <tripinfo id="flow1.21" depart="67.20" departLane="end1_junction_0" departPos="4.10" departSpeed="0.00" departDelay="46.20" arrival="129.20" arrivalLane="junction_end3_0" arrivalPos="486.40" arrivalSpeed="20.94" duration="62.00" routeLength="995.90" waitingTime="0.00" waitingCount="0" stopTime="0.00" timeLoss="34.29" rerouteNo="0" devices="tripinfo_flow1.21" vType="auto" speedFactor="0.94" vaporized=""/>
    <tripinfo id="flow0.28" depart="86.50" departLane="end1_junction_0" departPos="4.10" departSpeed="0.00" departDelay="58.50" arrival="129.40" arrivalLane="junction_end4_0" arrivalPos="486.40" arrivalSpeed="35.97" duration="42.90" routeLength="977.73" waitingTime="0.00" waitingCount="0" stopTime="0.00" timeLoss="14.71" rerouteNo="0" devices="tripinfo_flow0.28" vType="auto" speedFactor="1.15" vaporized=""/>
    <tripinfo id="flow1.14" depart="46.10" departLane="end1_junction_0" departPos="4.10" departSpeed="0.00" departDelay="32.10" arrival="130.00" arrivalLane="junction_end3_0" arrivalPos="486.40" arrivalSpeed="13.96" duration="83.90" routeLength="995.90" waitingTime="11.60" waitingCount="1" stopTime="0.00" timeLoss="30.60" rerouteNo="0" devices="tripinfo_flow1.14" vType="auto" speedFactor="0.35" vaporized=""/>
    <tripinfo id="flow1.22" depart="70.00" departLane="end1_junction_0" departPos="4.10" departSpeed="0.00" departDelay="48.00" arrival="130.90" arrivalLane="junction_end3_1" arrivalPos="486.40" arrivalSpeed="19.29" duration="60.90" routeLength="995.90" waitingTime="0.00" waitingCount="0" stopTime="0.00" timeLoss="33.24" rerouteNo="0" devices="tripinfo_flow1.22" vType="auto" speedFactor="0.91" vaporized=""/>
    <tripinfo id="flow1.23" depart="73.10" departLane="end1_junction_0" departPos="4.10" departSpeed="0.00" departDelay="50.10" arrival="131.10" arrivalLane="junction_end3_0" arrivalPos="486.40" arrivalSpeed="16.58" duration="58.00" routeLength="995.90" waitingTime="0.00" waitingCount="0" stopTime="0.00" timeLoss="30.30" rerouteNo="0" devices="tripinfo_flow1.23" vType="auto" speedFactor="1.02" vaporized=""/>
    <tripinfo id="flow1.16" depart="52.30" departLane="end1_junction_0" departPos="4.10" departSpeed="0.00" departDelay="36.30" arrival="131.20" arrivalLane="junction_end3_1" arrivalPos="486.40" arrivalSpeed="13.84" duration="78.90" routeLength="995.90" waitingTime="5.60" waitingCount="1" stopTime="0.00" timeLoss="24.57" rerouteNo="0" devices="tripinfo_flow1.16" vType="auto" speedFactor="0.35" vaporized=""/>
    <tripinfo id="flow1.24" depart="76.20" departLane="end1_junction_0" departPos="4.10" departSpeed="0.00" departDelay="52.20" arrival="132.30" arrivalLane="junction_end3_2" arrivalPos="486.40" arrivalSpeed="19.44" duration="56.10" routeLength="995.90" waitingTime="0.00" waitingCount="0" stopTime="0.00" timeLoss="28.42" rerouteNo="0" devices="tripinfo_flow1.24" vType="auto" speedFactor="1.06" vaporized=""/>
    <tripinfo id="flow1.25" depart="79.00" departLane="end1_junction_0" departPos="4.10" departSpeed="0.00" departDelay="54.00" arrival="132.40" arrivalLane="junction_end3_1" arrivalPos="486.40" arrivalSpeed="18.32" duration="53.40" routeLength="995.90" waitingTime="0.00" waitingCount="0" stopTime="0.00" timeLoss="25.70" rerouteNo="0" devices="tripinfo_flow1.25" vType="auto" speedFactor="1.03" vaporized=""/>
    <tripinfo id="flow0.29" depart="89.70" departLane="end1_junction_0" departPos="4.10" departSpeed="0.00" departDelay="60.70" arrival="132.60" arrivalLane="junction_end4_0" arrivalPos="486.40" arrivalSpeed="35.94" duration="42.90" routeLength="977.73" waitingTime="0.00" waitingCount="0" stopTime="0.00" timeLoss="14.68" rerouteNo="0" devices="tripinfo_flow0.29" vType="auto" speedFactor="1.04" vaporized=""/>
    <tripinfo id="flow1.26" depart="81.80" departLane="end1_junction_0" departPos="4.10" departSpeed="0.00" departDelay="55.80" arrival="133.40" arrivalLane="junction_end3_0" arrivalPos="486.40" arrivalSpeed="21.40" duration="51.60" routeLength="995.90" waitingTime="0.00" waitingCount="0" stopTime="0.00" timeLoss="23.92" rerouteNo="0" devices="tripinfo_flow1.26" vType="auto" speedFactor="1.09" vaporized=""/>
    <tripinfo id="flow1.27" depart="84.90" departLane="end1_junction_0" departPos="4.10" departSpeed="0.00" departDelay="57.90" arrival="133.40" arrivalLane="junction_end3_2" arrivalPos="486.40" arrivalSpeed="21.88" duration="48.50" routeLength="995.90" waitingTime="0.00" waitingCount="0" stopTime="0.00" timeLoss="20.81" rerouteNo="0" devices="tripinfo_flow1.27" vType="auto" speedFactor="1.02" vaporized=""/>
    <tripinfo id="flow1.28" depart="87.80" departLane="end1_junction_0" departPos="4.10" departSpeed="0.00" departDelay="59.80" arrival="134.40" arrivalLane="junction_end3_2" arrivalPos="486.40" arrivalSpeed="23.77" duration="46.60" routeLength="995.90" waitingTime="0.00" waitingCount="0" stopTime="0.00" timeLoss="18.93" rerouteNo="0" devices="tripinfo_flow1.28" vType="auto" speedFactor="0.98" vaporized=""/>
    <tripinfo id="flow1.29" depart="90.50" departLane="end1_junction_0" departPos="4.10" departSpeed="0.00" departDelay="61.50" arrival="135.50" arrivalLane="junction_end3_2" arrivalPos="486.40" arrivalSpeed="27.02" duration="45.00" routeLength="995.90" waitingTime="0.00" waitingCount="0" stopTime="0.00" timeLoss="17.30" rerouteNo="0" devices="tripinfo_flow1.29" vType="auto" speedFactor="1.01" vaporized=""/>
    <tripinfo id="flow0.30" depart="92.10" departLane="end1_junction_0" departPos="4.10" departSpeed="0.00" departDelay="62.10" arrival="135.70" arrivalLane="junction_end4_0" arrivalPos="486.40" arrivalSpeed="35.83" duration="43.60" routeLength="977.73" waitingTime="0.00" waitingCount="0" stopTime="0.00" timeLoss="15.31" rerouteNo="0" devices="tripinfo_flow0.30" vType="auto" speedFactor="1.02" vaporized=""/>
    <tripinfo id="flow1.30" depart="93.60" departLane="end1_junction_0" departPos="4.10" departSpeed="0.00" departDelay="63.60" arrival="136.70" arrivalLane="junction_end3_2" arrivalPos="486.40" arrivalSpeed="32.10" duration="43.10" routeLength="995.90" waitingTime="0.00" waitingCount="0" stopTime="0.00" timeLoss="15.11" rerouteNo="0" devices="tripinfo_flow1.30" vType="auto" speedFactor="0.89" vaporized=""/>
    <tripinfo id="flow1.31" depart="96.30" departLane="end1_junction_0" departPos="4.10" departSpeed="0.00" departDelay="65.30" arrival="138.10" arrivalLane="junction_end3_1" arrivalPos="486.40" arrivalSpeed="35.82" duration="41.80" routeLength="995.90" waitingTime="0.00" waitingCount="0" stopTime="0.00" timeLoss="14.07" rerouteNo="0" devices="tripinfo_flow1.31" vType="auto" speedFactor="1.09" vaporized=""/>
    <tripinfo id="flow0.31" depart="95.20" departLane="end1_junction_0" departPos="4.10" departSpeed="0.00" departDelay="64.20" arrival="139.30" arrivalLane="junction_end4_0" arrivalPos="486.40" arrivalSpeed="35.86" duration="44.10" routeLength="977.73" waitingTime="0.00" waitingCount="0" stopTime="0.00" timeLoss="15.67" rerouteNo="0" devices="tripinfo_flow0.31" vType="auto" speedFactor="0.92" vaporized=""/>
    <tripinfo id="flow1.32" depart="99.40" departLane="end1_junction_0" departPos="4.10" departSpeed="0.00" departDelay="67.40" arrival="140.90" arrivalLane="junction_end3_1" arrivalPos="486.40" arrivalSpeed="35.80" duration="41.50" routeLength="995.90" waitingTime="0.00" waitingCount="0" stopTime="0.00" timeLoss="13.81" rerouteNo="0" devices="tripinfo_flow1.32" vType="auto" speedFactor="0.91" vaporized=""/>
    <tripinfo id="flow0.32" depart="97.90" departLane="end1_junction_0" departPos="4.10" departSpeed="0.00" departDelay="65.90" arrival="142.30" arrivalLane="junction_end4_0" arrivalPos="486.40" arrivalSpeed="35.99" duration="44.40" routeLength="977.73" waitingTime="0.00" waitingCount="0" stopTime="0.00" timeLoss="16.03" rerouteNo="0" devices="tripinfo_flow0.32" vType="auto" speedFactor="1.01" vaporized=""/>
    <tripinfo id="flow0.33" depart="101.00" departLane="end1_junction_0" departPos="4.10" departSpeed="0.00" departDelay="68.00" arrival="145.00" arrivalLane="junction_end4_0" arrivalPos="486.40" arrivalSpeed="35.86" duration="44.00" routeLength="977.73" waitingTime="0.00" waitingCount="0" stopTime="0.00" timeLoss="15.72" rerouteNo="0" devices="tripinfo_flow0.33" vType="auto" speedFactor="1.10" vaporized=""/>
    <tripinfo id="flow0.34" depart="103.70" departLane="end1_junction_0" departPos="4.10" departSpeed="0.00" departDelay="69.70" arrival="148.40" arrivalLane="junction_end4_0" arrivalPos="486.40" arrivalSpeed="35.83" duration="44.70" routeLength="977.73" waitingTime="0.00" waitingCount="0" stopTime="0.00" timeLoss="16.24" rerouteNo="0" devices="tripinfo_flow0.34" vType="auto" speedFactor="0.97" vaporized=""/>
    <tripinfo id="flow2.0" depart="1.60" departLane="end1_junction_0" departPos="4.10" departSpeed="0.00" departDelay="1.60" arrival="149.50" arrivalLane="junction_end2_2" arrivalPos="486.40" arrivalSpeed="35.83" duration="147.90" routeLength="993.21" waitingTime="107.20" waitingCount="1" stopTime="0.00" timeLoss="118.64" rerouteNo="0" devices="tripinfo_flow2.0" vType="auto" speedFactor="1.01" vaporized=""/>
    <tripinfo id="flow0.35" depart="106.80" departLane="end1_junction_0" departPos="4.10" departSpeed="0.00" departDelay="71.80" arrival="151.10" arrivalLane="junction_end4_0" arrivalPos="486.40" arrivalSpeed="35.82" duration="44.30" routeLength="977.73" waitingTime="0.00" waitingCount="0" stopTime="0.00" timeLoss="16.01" rerouteNo="0" devices="tripinfo_flow0.35" vType="auto" speedFactor="1.07" vaporized=""/>