<?xml version="1.0" encoding="UTF-8"?>

<!-- generated on 2024-05-01 20:57:54 by Eclipse SUMO GUI Version 1.19.0
<configuration xmlns:xsi="http://www.w3.org/2001/XMLSchema-instance" xsi:noNamespaceSchemaLocation="http://sumo.dlr.de/xsd/sumoConfiguration.xsd">

    <input>
        <net-file value="sim_cfg/intelligent_traffic.net.xml"/>
        <route-files value="sim_cfg/intelligent_traffic.rou.xml"/>
    </input>

    <output>
        <tripinfo-output value="sim_cfg/tripinfo.xml"/>
    </output>

    <time>
        <begin value="0"/>
        <end value="500"/>
        <step-length value="0.1"/>
    </time>

    <traci_server>
        <remote-port value="49614"/>
    </traci_server>

    <gui_only>
        <gui-settings-file value="sim_cfg/gui_settings.xml"/>
    </gui_only>

</configuration>
-->

<tripinfos xmlns:xsi="http://www.w3.org/2001/XMLSchema-instance" xsi:noNamespaceSchemaLocation="http://sumo.dlr.de/xsd/tripinfo_file.xsd">
    <tripinfo id="flow0.0" depart="0.00" departLane="end1_junction_0" departPos="4.10" departSpeed="0.00" departDelay="0.00" arrival="37.50" arrivalLane="junction_end4_0" arrivalPos="486.40" arrivalSpeed="35.80" duration="37.50" routeLength="977.73" waitingTime="0.00" waitingCount="0" stopTime="0.00" timeLoss="9.22" rerouteNo="0" devices="tripinfo_flow0.0" vType="auto" speedFactor="1.06" vaporized=""/>
    <tripinfo id="flow0.1" depart="3.40" departLane="end1_junction_0" departPos="4.10" departSpeed="0.00" departDelay="2.40" arrival="41.80" arrivalLane="junction_end4_0" arrivalPos="486.40" arrivalSpeed="35.76" duration="38.40" routeLength="977.73" waitingTime="0.00" waitingCount="0" stopTime="0.00" timeLoss="10.15" rerouteNo="0" devices="tripinfo_flow0.1" vType="auto" speedFactor="1.08" vaporized=""/>
    <tripinfo id="flow0.2" depart="6.90" departLane="end1_junction_0" departPos="4.10" departSpeed="0.00" departDelay="4.90" arrival="45.90" arrivalLane="junction_end4_0" arrivalPos="486.40" arrivalSpeed="35.79" duration="39.00" routeLength="977.73" waitingTime="0.00" waitingCount="0" stopTime="0.00" timeLoss="10.79" rerouteNo="0" devices="tripinfo_flow0.2" vType="auto" speedFactor="1.05" vaporized=""/>
    <tripinfo id="flow0.3" depart="10.40" departLane="end1_junction_0" departPos="4.10" departSpeed="0.00" departDelay="7.40" arrival="51.20" arrivalLane="junction_end4_0" arrivalPos="486.40" arrivalSpeed="34.06" duration="40.80" routeLength="977.73" waitingTime="0.00" waitingCount="0" stopTime="0.00" timeLoss="10.94" rerouteNo="0" devices="tripinfo_flow0.3" vType="auto" speedFactor="0.86" vaporized=""/>
    <tripinfo id="flow0.4" depart="13.90" departLane="end1_junction_0" departPos="4.10" departSpeed="0.00" departDelay="9.90" arrival="53.60" arrivalLane="junction_end4_0" arrivalPos="486.40" arrivalSpeed="35.80" duration="39.70" routeLength="977.73" waitingTime="0.00" waitingCount="0" stopTime="0.00" timeLoss="11.48" rerouteNo="0" devices="tripinfo_flow0.4" vType="auto" speedFactor="1.05" vaporized=""/>
    <tripinfo id="flow0.5" depart="17.80" departLane="end1_junction_0" departPos="4.10" departSpeed="0.00" departDelay="12.80" arrival="57.90" arrivalLane="junction_end4_0" arrivalPos="486.40" arrivalSpeed="35.77" duration="40.10" routeLength="977.73" waitingTime="0.00" waitingCount="0" stopTime="0.00" timeLoss="11.66" rerouteNo="0" devices="tripinfo_flow0.5" vType="auto" speedFactor="0.93" vaporized=""/>
    <tripinfo id="flow0.6" depart="21.30" departLane="end1_junction_0" departPos="4.10" departSpeed="0.00" departDelay="15.30" arrival="61.90" arrivalLane="junction_end4_0" arrivalPos="486.40" arrivalSpeed="35.76" duration="40.60" routeLength="977.73" waitingTime="0.00" waitingCount="0" stopTime="0.00" timeLoss="12.08" rerouteNo="0" devices="tripinfo_flow0.6" vType="auto" speedFactor="0.94" vaporized=""/>
    <tripinfo id="flow0.7" depart="24.70" departLane="end1_junction_0" departPos="4.10" departSpeed="0.00" departDelay="17.70" arrival="65.30" arrivalLane="junction_end4_0" arrivalPos="486.40" arrivalSpeed="35.97" duration="40.60" routeLength="977.73" waitingTime="0.00" waitingCount="0" stopTime="0.00" timeLoss="12.25" rerouteNo="0" devices="tripinfo_flow0.7" vType="auto" speedFactor="1.01" vaporized=""/>
    <tripinfo id="flow0.8" depart="28.20" departLane="end1_junction_0" departPos="4.10" departSpeed="0.00" departDelay="20.20" arrival="70.50" arrivalLane="junction_end4_0" arrivalPos="486.40" arrivalSpeed="32.85" duration="42.30" routeLength="977.73" waitingTime="0.00" waitingCount="0" stopTime="0.00" timeLoss="11.26" rerouteNo="0" devices="tripinfo_flow0.8" vType="auto" speedFactor="0.83" vaporized=""/>
    <tripinfo id="flow0.9" depart="31.60" departLane="end1_junction_0" departPos="4.10" departSpeed="0.00" departDelay="22.60" arrival="72.80" arrivalLane="junction_end4_0" arrivalPos="486.40" arrivalSpeed="35.96" duration="41.20" routeLength="977.73" waitingTime="0.00" waitingCount="0" stopTime="0.00" timeLoss="12.89" rerouteNo="0" devices="tripinfo_flow0.9" vType="auto" speedFactor="0.95" vaporized=""/>
    <tripinfo id="flow0.10" depart="35.30" departLane="end1_junction_0" departPos="4.10" departSpeed="0.00" departDelay="25.30" arrival="75.90" arrivalLane="junction_end4_0" arrivalPos="486.40" arrivalSpeed="35.81" duration="40.60" routeLength="977.73" waitingTime="0.00" waitingCount="0" stopTime="0.00" timeLoss="12.44" rerouteNo="0" devices="tripinfo_flow0.10" vType="auto" speedFactor="1.18" vaporized=""/>
    <tripinfo id="flow0.11" depart="39.10" departLane="end1_junction_0" departPos="4.10" departSpeed="0.00" departDelay="28.10" arrival="79.70" arrivalLane="junction_end4_0" arrivalPos="486.40" arrivalSpeed="35.93" duration="40.60" routeLength="977.73" waitingTime="0.00" waitingCount="0" stopTime="0.00" timeLoss="12.43" rerouteNo="0" devices="tripinfo_flow0.11" vType="auto" speedFactor="1.17" vaporized=""/>
    <tripinfo id="flow0.12" depart="42.60" departLane="end1_junction_0" departPos="4.10" departSpeed="0.00" departDelay="30.60" arrival="84.00" arrivalLane="junction_end4_0" arrivalPos="486.40" arrivalSpeed="35.89" duration="41.40" routeLength="977.73" waitingTime="0.00" waitingCount="0" stopTime="0.00" timeLoss="13.03" rerouteNo="0" devices="tripinfo_flow0.12" vType="auto" speedFactor="0.97" vaporized=""/>
    <tripinfo id="flow0.13" depart="46.30" departLane="end1_junction_0" departPos="4.10" departSpeed="0.00" departDelay="33.30" arrival="88.20" arrivalLane="junction_end4_0" arrivalPos="486.40" arrivalSpeed="35.96" duration="41.90" routeLength="977.73" waitingTime="0.00" waitingCount="0" stopTime="0.00" timeLoss="13.46" rerouteNo="0" devices="tripinfo_flow0.13" vType="auto" speedFactor="0.90" vaporized=""/>
    <tripinfo id="flow0.14" depart="49.70" departLane="end1_junction_0" departPos="4.10" departSpeed="0.00" departDelay="35.70" arrival="91.40" arrivalLane="junction_end4_0" arrivalPos="486.40" arrivalSpeed="35.85" duration="41.70" routeLength="977.73" waitingTime="0.00" waitingCount="0" stopTime="0.00" timeLoss="13.49" rerouteNo="0" devices="tripinfo_flow0.14" vType="auto" speedFactor="1.09" vaporized=""/>
    <tripinfo id="flow0.15" depart="53.20" departLane="end1_junction_0" departPos="4.10" departSpeed="0.00" departDelay="38.20" arrival="95.00" arrivalLane="junction_end4_0" arrivalPos="486.40" arrivalSpeed="35.94" duration="41.80" routeLength="977.73" waitingTime="0.00" waitingCount="0" stopTime="0.00" timeLoss="13.55" rerouteNo="0" devices="tripinfo_flow0.15" vType="auto" speedFactor="1.09" vaporized=""/>
    <tripinfo id="flow1.0" depart="1.70" departLane="end1_junction_0" departPos="4.10" departSpeed="0.00" departDelay="1.70" arrival="98.80" arrivalLane="junction_end3_1" arrivalPos="486.40" arrivalSpeed="35.79" duration="97.10" routeLength="995.90" waitingTime="58.60" waitingCount="1" stopTime="0.00" timeLoss="69.44" rerouteNo="0" devices="tripinfo_flow1.0" vType="auto" speedFactor="0.94" vaporized=""/>
    <tripinfo id="flow0.16" depart="57.10" departLane="end1_junction_0" departPos="4.10" departSpeed="0.00" departDelay="41.10" arrival="99.80" arrivalLane="junction_end4_0" arrivalPos="486.40" arrivalSpeed="35.04" duration="42.70" routeLength="977.73" waitingTime="0.00" waitingCount="0" stopTime="0.00" timeLoss="13.48" rerouteNo="0" devices="tripinfo_flow0.16" vType="auto" speedFactor="0.88" vaporized=""/>
    <tripinfo id="flow0.17" depart="60.60" departLane="end1_junction_0" departPos="4.10" departSpeed="0.00" departDelay="43.60" arrival="102.40" arrivalLane="junction_end4_0" arrivalPos="486.40" arrivalSpeed="35.75" duration="41.80" routeLength="977.73" waitingTime="0.00" waitingCount="0" stopTime="0.00" timeLoss="13.73" rerouteNo="0" devices="tripinfo_flow0.17" vType="auto" speedFactor="1.17" vaporized=""/>
    <tripinfo id="flow0.18" depart="64.00" departLane="end1_junction_0" departPos="4.10" departSpeed="0.00" departDelay="46.00" arrival="106.30" arrivalLane="junction_end4_0" arrivalPos="486.40" arrivalSpeed="35.79" duration="42.30" routeLength="977.73" waitingTime="0.00" waitingCount="0" stopTime="0.00" timeLoss="14.00" rerouteNo="0" devices="tripinfo_flow0.18" vType="auto" speedFactor="1.00" vaporized=""/>
    <tripinfo id="flow0.19" depart="66.90" departLane="end1_junction_0" departPos="4.10" departSpeed="0.00" departDelay="47.90" arrival="109.50" arrivalLane="junction_end4_0" arrivalPos="486.40" arrivalSpeed="35.94" duration="42.60" routeLength="977.73" waitingTime="0.00" waitingCount="0" stopTime="0.00" timeLoss="14.47" rerouteNo="0" devices="tripinfo_flow0.19" vType="auto" speedFactor="1.14" vaporized=""/>
    <tripinfo id="flow0.20" depart="70.40" departLane="end1_junction_0" departPos="4.10" departSpeed="0.00" departDelay="50.40" arrival="113.10" arrivalLane="junction_end4_0" arrivalPos="486.40" arrivalSpeed="35.91" duration="42.70" routeLength="977.73" waitingTime="0.00" waitingCount="0" stopTime="0.00" timeLoss="14.43" rerouteNo="0" devices="tripinfo_flow0.20" vType="auto" speedFactor="1.08" vaporized=""/>
    <tripinfo id="flow1.1" depart="5.10" departLane="end1_junction_0" departPos="4.10" departSpeed="0.00" departDelay="4.10" arrival="114.90" arrivalLane="junction_end3_0" arrivalPos="486.40" arrivalSpeed="13.86" duration="109.80" routeLength="995.90" waitingTime="51.00" waitingCount="1" stopTime="0.00" timeLoss="59.41" rerouteNo="0" devices="tripinfo_flow1.1" vType="auto" speedFactor="0.35" vaporized=""/>
    <tripinfo id="flow1.2" depart="8.60" departLane="end1_junction_0" departPos="4.10" departSpeed="0.00" departDelay="6.60" arrival="115.60" arrivalLane="junction_end3_2" arrivalPos="486.40" arrivalSpeed="13.94" duration="107.00" routeLength="995.90" waitingTime="47.00" waitingCount="1" stopTime="0.00" timeLoss="56.14" rerouteNo="0" devices="tripinfo_flow1.2" vType="auto" speedFactor="0.35" vaporized=""/>
    <tripinfo id="flow0.21" depart="73.90" departLane="end1_junction_0" departPos="4.10" departSpeed="0.00" departDelay="52.90" arrival="116.30" arrivalLane="junction_end4_0" arrivalPos="486.40" arrivalSpeed="35.83" duration="42.40" routeLength="977.73" waitingTime="0.00" waitingCount="0" stopTime="0.00" timeLoss="14.05" rerouteNo="0" devices="tripinfo_flow0.21" vType="auto" speedFactor="0.99" vaporized=""/>
    <tripinfo id="flow1.3" depart="12.10" departLane="end1_junction_0" departPos="4.10" departSpeed="0.00" departDelay="9.10" arrival="116.40" arrivalLane="junction_end3_0" arrivalPos="486.40" arrivalSpeed="13.98" duration="104.30" routeLength="995.90" waitingTime="43.60" waitingCount="1" stopTime="0.00" timeLoss="53.29" rerouteNo="0" devices="tripinfo_flow1.3" vType="auto" speedFactor="0.35" vaporized=""/>
    <tripinfo id="flow1.4" depart="15.50" departLane="end1_junction_0" departPos="4.10" departSpeed="0.00" departDelay="11.50" arrival="117.10" arrivalLane="junction_end3_2" arrivalPos="486.40" arrivalSpeed="13.78" duration="101.60" routeLength="995.90" waitingTime="40.30" waitingCount="1" stopTime="0.00" timeLoss="50.39" rerouteNo="0" devices="tripinfo_flow1.4" vType="auto" speedFactor="0.35" vaporized=""/>
    <tripinfo id="flow1.6" depart="23.00" departLane="end1_junction_0" departPos="4.10" departSpeed="0.00" departDelay="17.00" arrival="118.20" arrivalLane="junction_end3_0" arrivalPos="486.40" arrivalSpeed="13.76" duration="95.20" routeLength="995.90" waitingTime="33.40" waitingCount="1" stopTime="0.00" timeLoss="43.43" rerouteNo="0" devices="tripinfo_flow1.6" vType="auto" speedFactor="0.35" vaporized=""/>
    <tripinfo id="flow1.5" depart="19.50" departLane="end1_junction_0" departPos="4.10" departSpeed="0.00" departDelay="14.50" arrival="118.60" arrivalLane="junction_end3_2" arrivalPos="486.40" arrivalSpeed="13.93" duration="99.10" routeLength="995.90" waitingTime="36.70" waitingCount="1" stopTime="0.00" timeLoss="47.27" rerouteNo="0" devices="tripinfo_flow1.5" vType="auto" speedFactor="0.35" vaporized=""/>
    <tripinfo id="flow1.8" depart="29.80" departLane="end1_junction_0" departPos="4.10" departSpeed="0.00" departDelay="21.80" arrival="119.50" arrivalLane="junction_end3_1" arrivalPos="486.40" arrivalSpeed="13.97" duration="89.70" routeLength="995.90" waitingTime="26.70" waitingCount="1" stopTime="0.00" timeLoss="37.06" rerouteNo="0" devices="tripinfo_flow1.8" vType="auto" speedFactor="0.35" vaporized=""/>
    <tripinfo id="flow0.22" depart="76.70" departLane="end1_junction_0" departPos="4.10" departSpeed="0.00" departDelay="54.70" arrival="119.80" arrivalLane="junction_end4_0" arrivalPos="486.40" arrivalSpeed="35.90" duration="43.10" routeLength="977.73" waitingTime="0.00" waitingCount="0" stopTime="0.00" timeLoss="14.71" rerouteNo="0" devices="tripinfo_flow0.22" vType="auto" speedFactor="0.91" vaporized=""/>
    <tripinfo id="flow1.7" depart="26.40" departLane="end1_junction_0" departPos="4.10" departSpeed="0.00" departDelay="19.40" arrival="120.00" arrivalLane="junction_end3_2" arrivalPos="486.40" arrivalSpeed="13.93" duration="93.60" routeLength="995.90" waitingTime="30.00" waitingCount="1" stopTime="0.00" timeLoss="41.62" rerouteNo="0" devices="tripinfo_flow1.7" vType="auto" speedFactor="0.35" vaporized=""/>
    <tripinfo id="flow1.10" depart="36.50" departLane="end1_junction_0" departPos="4.10" departSpeed="0.00" departDelay="26.50" arrival="120.80" arrivalLane="junction_end3_0" arrivalPos="486.40" arrivalSpeed="13.78" duration="84.30" routeLength="995.90" waitingTime="20.10" waitingCount="1" stopTime="0.00" timeLoss="31.52" rerouteNo="0" devices="tripinfo_flow1.10" vType="auto" speedFactor="0.35" vaporized=""/>
    <tripinfo id="flow1.9" depart="33.20" departLane="end1_junction_0" departPos="4.10" departSpeed="0.00" departDelay="24.20" arrival="121.50" arrivalLane="junction_end3_2" arrivalPos="486.40" arrivalSpeed="13.97" duration="88.30" routeLength="995.90" waitingTime="23.40" waitingCount="1" stopTime="0.00" timeLoss="35.74" rerouteNo="0" devices="tripinfo_flow1.9" vType="auto" speedFactor="0.35" vaporized=""/>
    <tripinfo id="flow1.12" depart="44.10" departLane="end1_junction_0" departPos="4.10" departSpeed="0.00" departDelay="32.10" arrival="122.10" arrivalLane="junction_end3_1" arrivalPos="486.40" arrivalSpeed="13.94" duration="78.00" routeLength="995.90" waitingTime="13.10" waitingCount="1" stopTime="0.00" timeLoss="24.63" rerouteNo="0" devices="tripinfo_flow1.12" vType="auto" speedFactor="0.35" vaporized=""/>
    <tripinfo id="flow1.11" depart="40.80" departLane="end1_junction_0" departPos="4.10" departSpeed="0.00" departDelay="29.80" arrival="122.90" arrivalLane="junction_end3_2" arrivalPos="486.40" arrivalSpeed="13.97" duration="82.10" routeLength="995.90" waitingTime="16.40" waitingCount="1" stopTime="0.00" timeLoss="29.07" rerouteNo="0" devices="tripinfo_flow1.11" vType="auto" speedFactor="0.35" vaporized=""/>
    <tripinfo id="flow0.23" depart="80.00" departLane="end1_junction_0" departPos="4.10" departSpeed="0.00" departDelay="57.00" arrival="123.00" arrivalLane="junction_end4_0" arrivalPos="486.40" arrivalSpeed="35.98" duration="43.00" routeLength="977.73" waitingTime="0.00" waitingCount="0" stopTime="0.00" timeLoss="14.73" rerouteNo="0" devices="tripinfo_flow0.23" vType="auto" speedFactor="1.02" vaporized=""/>
    <tripinfo id="flow1.14" depart="51.20" departLane="end1_junction_0" departPos="4.10" departSpeed="0.00" departDelay="37.20" arrival="123.30" arrivalLane="junction_end3_0" arrivalPos="486.40" arrivalSpeed="13.77" duration="72.10" routeLength="995.90" waitingTime="6.30" waitingCount="1" stopTime="0.00" timeLoss="18.24" rerouteNo="0" devices="tripinfo_flow1.14" vType="auto" speedFactor="0.35" vaporized=""/>
    <tripinfo id="flow1.16" depart="58.80" departLane="end1_junction_0" departPos="4.10" departSpeed="0.00" departDelay="42.80" arrival="123.30" arrivalLane="junction_end3_1" arrivalPos="486.40" arrivalSpeed="18.63" duration="64.50" routeLength="995.90" waitingTime="0.00" waitingCount="0" stopTime="0.00" timeLoss="35.20" rerouteNo="0" devices="tripinfo_flow1.16" vType="auto" speedFactor="0.85" vaporized=""/>
    <tripinfo id="flow1.13" depart="47.90" departLane="end1_junction_0" departPos="4.10" departSpeed="0.00" departDelay="34.90" arrival="124.40" arrivalLane="junction_end3_2" arrivalPos="486.40" arrivalSpeed="13.78" duration="76.50" routeLength="995.90" waitingTime="9.50" waitingCount="1" stopTime="0.00" timeLoss="22.90" rerouteNo="0" devices="tripinfo_flow1.13" vType="auto" speedFactor="0.35" vaporized=""/>
    <tripinfo id="flow1.18" depart="65.10" departLane="end1_junction_0" departPos="4.10" departSpeed="0.00" departDelay="47.10" arrival="124.60" arrivalLane="junction_end3_1" arrivalPos="486.40" arrivalSpeed="16.62" duration="59.50" routeLength="995.90" waitingTime="0.00" waitingCount="0" stopTime="0.00" timeLoss="31.83" rerouteNo="0" devices="tripinfo_flow1.18" vType="auto" speedFactor="1.00" vaporized=""/>
    <tripinfo id="flow1.15" depart="54.30" departLane="end1_junction_0" departPos="4.10" departSpeed="0.00" departDelay="39.30" arrival="125.50" arrivalLane="junction_end3_0" arrivalPos="486.40" arrivalSpeed="13.89" duration="71.20" routeLength="995.90" waitingTime="3.10" waitingCount="1" stopTime="0.00" timeLoss="17.04" rerouteNo="0" devices="tripinfo_flow1.15" vType="auto" speedFactor="0.35" vaporized=""/>
    <tripinfo id="flow1.17" depart="61.90" departLane="end1_junction_0" departPos="4.10" departSpeed="0.00" departDelay="44.90" arrival="125.60" arrivalLane="junction_end3_2" arrivalPos="486.40" arrivalSpeed="18.09" duration="63.70" routeLength="995.90" waitingTime="0.00" waitingCount="0" stopTime="0.00" timeLoss="36.04" rerouteNo="0" devices="tripinfo_flow1.17" vType="auto" speedFactor="1.02" vaporized=""/>
    <tripinfo id="flow1.19" depart="68.60" departLane="end1_junction_0" departPos="4.10" departSpeed="0.00" departDelay="49.60" arrival="125.90" arrivalLane="junction_end3_1" arrivalPos="486.40" arrivalSpeed="18.93" duration="57.30" routeLength="995.90" waitingTime="0.00" waitingCount="0" stopTime="0.00" timeLoss="29.61" rerouteNo="0" devices="tripinfo_flow1.19" vType="auto" speedFactor="1.02" vaporized=""/>
    <tripinfo id="flow0.24" depart="83.00" departLane="end1_junction_0" departPos="4.10" departSpeed="0.00" departDelay="59.00" arrival="126.50" arrivalLane="junction_end4_0" arrivalPos="486.40" arrivalSpeed="35.89" duration="43.50" routeLength="977.73" waitingTime="0.00" waitingCount="0" stopTime="0.00" timeLoss="15.10" rerouteNo="0" devices="tripinfo_flow0.24" vType="auto" speedFactor="0.94" vaporized=""/>
    <tripinfo id="flow1.20" depart="71.70" departLane="end1_junction_0" departPos="4.10" departSpeed="0.00" departDelay="51.70" arrival="126.80" arrivalLane="junction_end3_2" arrivalPos="486.40" arrivalSpeed="21.61" duration="55.10" routeLength="995.90" waitingTime="0.00" waitingCount="0" stopTime="0.00" timeLoss="27.38" rerouteNo="0" devices="tripinfo_flow1.20" vType="auto" speedFactor="1.12" vaporized=""/>
    <tripinfo id="flow1.21" depart="74.90" departLane="end1_junction_0" departPos="4.10" departSpeed="0.00" departDelay="53.90" arrival="127.10" arrivalLane="junction_end3_1" arrivalPos="486.40" arrivalSpeed="21.66" duration="52.20" routeLength="995.90" waitingTime="0.00" waitingCount="0" stopTime="0.00" timeLoss="24.49" rerouteNo="0" devices="tripinfo_flow1.21" vType="auto" speedFactor="0.94" vaporized=""/>
    <tripinfo id="flow1.23" depart="81.30" departLane="end1_junction_0" departPos="4.10" departSpeed="0.00" departDelay="58.30" arrival="127.80" arrivalLane="junction_end3_2" arrivalPos="486.40" arrivalSpeed="23.79" duration="46.50" routeLength="995.90" waitingTime="0.00" waitingCount="0" stopTime="0.00" timeLoss="18.84" rerouteNo="0" devices="tripinfo_flow1.23" vType="auto" speedFactor="1.02" vaporized=""/>
    <tripinfo id="flow1.22" depart="78.30" departLane="end1_junction_0" departPos="4.10" departSpeed="0.00" departDelay="56.30" arrival="128.20" arrivalLane="junction_end3_1" arrivalPos="486.40" arrivalSpeed="23.82" duration="49.90" routeLength="995.90" waitingTime="0.00" waitingCount="0" stopTime="0.00" timeLoss="22.19" rerouteNo="0" devices="tripinfo_flow1.22" vType="auto" speedFactor="0.91" vaporized=""/>
    <tripinfo id="flow1.24" depart="84.70" departLane="end1_junction_0" departPos="4.10" departSpeed="0.00" departDelay="60.70" arrival="129.00" arrivalLane="junction_end3_2" arrivalPos="486.40" arrivalSpeed="27.28" duration="44.30" routeLength="995.90" waitingTime="0.00" waitingCount="0" stopTime="0.00" timeLoss="16.57" rerouteNo="0" devices="tripinfo_flow1.24" vType="auto" speedFactor="1.06" vaporized=""/>
    <tripinfo id="flow0.25" depart="86.40" departLane="end1_junction_0" departPos="4.10" departSpeed="0.00" departDelay="61.40" arrival="129.80" arrivalLane="junction_end4_0" arrivalPos="486.40" arrivalSpeed="35.91" duration="43.40" routeLength="977.73" waitingTime="0.00" waitingCount="0" stopTime="0.00" timeLoss="14.99" rerouteNo="0" devices="tripinfo_flow0.25" vType="auto" speedFactor="0.98" vaporized=""/>
    <tripinfo id="flow1.25" depart="87.40" departLane="end1_junction_0" departPos="4.10" departSpeed="0.00" departDelay="62.40" arrival="130.20" arrivalLane="junction_end3_1" arrivalPos="486.40" arrivalSpeed="32.52" duration="42.80" routeLength="995.90" waitingTime="0.00" waitingCount="0" stopTime="0.00" timeLoss="15.11" rerouteNo="0" devices="tripinfo_flow1.25" vType="auto" speedFactor="1.03" vaporized=""/>
    <tripinfo id="flow1.26" depart="90.90" departLane="end1_junction_0" departPos="4.10" departSpeed="0.00" departDelay="64.90" arrival="132.20" arrivalLane="junction_end3_1" arrivalPos="486.40" arrivalSpeed="35.98" duration="41.30" routeLength="995.90" waitingTime="0.00" waitingCount="0" stopTime="0.00" timeLoss="13.62" rerouteNo="0" devices="tripinfo_flow1.26" vType="auto" speedFactor="1.09" vaporized=""/>
    <tripinfo id="flow0.26" depart="89.20" departLane="end1_junction_0" departPos="4.10" departSpeed="0.00" departDelay="63.20" arrival="133.00" arrivalLane="junction_end4_0" arrivalPos="486.40" arrivalSpeed="35.91" duration="43.80" routeLength="977.73" waitingTime="0.00" waitingCount="0" stopTime="0.00" timeLoss="15.49" rerouteNo="0" devices="tripinfo_flow0.26" vType="auto" speedFactor="1.01" vaporized=""/>
    <tripinfo id="flow1.27" depart="93.60" departLane="end1_junction_0" departPos="4.10" departSpeed="0.00" departDelay="66.60" arrival="135.40" arrivalLane="junction_end3_1" arrivalPos="486.40" arrivalSpeed="35.91" duration="41.80" routeLength="995.90" waitingTime="0.00" waitingCount="0" stopTime="0.00" timeLoss="14.13" rerouteNo="0" devices="tripinfo_flow1.27" vType="auto" speedFactor="1.02" vaporized=""/>
    <tripinfo id="flow0.27" depart="92.60" departLane="end1_junction_0" departPos="4.10" departSpeed="0.00" departDelay="65.60" arrival="136.40" arrivalLane="junction_end4_0" arrivalPos="486.40" arrivalSpeed="35.89" duration="43.80" routeLength="977.73" waitingTime="0.00" waitingCount="0" stopTime="0.00" timeLoss="15.45" rerouteNo="0" devices="tripinfo_flow0.27" vType="auto" speedFactor="1.00" vaporized=""/>
    <tripinfo id="flow1.28" depart="97.00" departLane="end1_junction_0" departPos="4.10" departSpeed="0.00" departDelay="69.00" arrival="138.70" arrivalLane="junction_end3_1" arrivalPos="486.40" arrivalSpeed="35.80" duration="41.70" routeLength="995.90" waitingTime="0.00" waitingCount="0" stopTime="0.00" timeLoss="13.99" rerouteNo="0" devices="tripinfo_flow1.28" vType="auto" speedFactor="0.98" vaporized=""/>
    <tripinfo id="flow0.28" depart="95.30" departLane="end1_junction_0" departPos="4.10" departSpeed="0.00" departDelay="67.30" arrival="139.20" arrivalLane="junction_end4_0" arrivalPos="486.40" arrivalSpeed="36.00" duration="43.90" routeLength="977.73" waitingTime="0.00" waitingCount="0" stopTime="0.00" timeLoss="15.74" rerouteNo="0" devices="tripinfo_flow0.28" vType="auto" speedFactor="1.15" vaporized=""/>
    <tripinfo id="flow0.29" depart="98.80" departLane="end1_junction_0" departPos="4.10" departSpeed="0.00" departDelay="69.80" arrival="142.60" arrivalLane="junction_end4_0" arrivalPos="486.40" arrivalSpeed="35.95" duration="43.80" routeLength="977.73" waitingTime="0.00" waitingCount="0" stopTime="0.00" timeLoss="15.58" rerouteNo="0" devices="tripinfo_flow0.29" vType="auto" speedFactor="1.04" vaporized=""/>
    <tripinfo id="flow0.30" depart="101.50" departLane="end1_junction_0" departPos="4.10" departSpeed="0.00" departDelay="71.50" arrival="146.10" arrivalLane="junction_end4_0" arrivalPos="486.40" arrivalSpeed="35.86" duration="44.60" routeLength="977.73" waitingTime="0.00" waitingCount="0" stopTime="0.00" timeLoss="16.24" rerouteNo="0" devices="tripinfo_flow0.30" vType="auto" speedFactor="1.02" vaporized=""/>
    <tripinfo id="flow2.0" depart="1.80" departLane="end1_junction_0" departPos="4.10" departSpeed="0.00" departDelay="1.80" arrival="149.50" arrivalLane="junction_end2_2" arrivalPos="486.40" arrivalSpeed="35.94" duration="147.70" routeLength="993.21" waitingTime="106.80" waitingCount="1" stopTime="0.00" timeLoss="118.48" rerouteNo="0" devices="tripinfo_flow2.0" vType="auto" speedFactor="1.01" vaporized=""/>
    <tripinfo id="flow0.31" depart="104.90" departLane="end1_junction_0" departPos="4.10" departSpeed="0.00" departDelay="73.90" arrival="149.80" arrivalLane="junction_end4_0" arrivalPos="486.40" arrivalSpeed="35.80" duration="44.90" routeLength="977.73" waitingTime="0.00" waitingCount="0" stopTime="0.00" timeLoss="16.46" rerouteNo="0" devices="tripinfo_flow0.31" vType="auto" speedFactor="0.92" vaporized=""/>
    <tripinfo id="flow0.32" depart="107.50" departLane="end1_junction_0" departPos="4.10" departSpeed="0.00" departDelay="75.50" arrival="152.70" arrivalLane="junction_end4_0" arrivalPos="486.40" arrivalSpeed="35.82" duration="45.20" routeLength="977.73" waitingTime="0.00" waitingCount="0" stopTime="0.00" timeLoss="17.00" rerouteNo="0" devices="tripinfo_flow0.32" vType="auto" speedFactor="1.01" vaporized=""/>
    <tripinfo id="flow0.33" depart="111.00" departLane="end1_junction_0" departPos="4.10" departSpeed="0.00" departDelay="78.00" arrival="155.80" arrivalLane="junction_end4_0" arrivalPos="486.40" arrivalSpeed="35.86" duration="44.80" routeLength="977.73" waitingTime="0.00" waitingCount="0" stopTime="0.00" timeLoss="16.58" rerouteNo="0" devices="tripinfo_flow0.33" vType="auto" speedFactor="1.10" vaporized=""/>
    <tripinfo id="flow0.34" depart="113.70" departLane="end1_junction_0" departPos="4.10" departSpeed="0.00" departDelay="79.70" arrival="159.40" arrivalLane="junction_end4_0" arrivalPos="486.40" arrivalSpeed="35.79" duration="45.70" routeLength="977.73" waitingTime="0.00" waitingCount="0" stopTime="0.00" timeLoss="17.28" rerouteNo="0" devices="tripinfo_flow0.34" vType="auto" speedFactor="0.97" vaporized=""/>
    <tripinfo id="flow2.1" depart="5.20" departLane="end1_junction_0" departPos="4.10" departSpeed="0.00" departDelay="4.20" arrival="160.20" arrivalLane="junction_end2_0" arrivalPos="486.40" arrivalSpeed="13.80" duration="155.00" routeLength="993.21" waitingTime="99.00" waitingCount="1" stopTime="0.00" timeLoss="103.60" rerouteNo="0" devices="tripinfo_flow2.1" vType="auto" speedFactor="0.35" vaporized=""/>
    <tripinfo id="flow2.2" depart="8.70" departLane="end1_junction_0" departPos="4.10" departSpeed="0.00" departDelay="6.70" arrival="160.60" arrivalLane="junction_end2_2" arrivalPos="486.40" arrivalSpeed="13.95" duration="151.90" routeLength="993.21" waitingTime="95.70" waitingCount="1" stopTime="0.00" timeLoss="101.29" rerouteNo="0" devices="tripinfo_flow2.2" vType="auto" speedFactor="0.35" vaporized=""/>
    <tripinfo id="flow2.3" depart="12.20" departLane="end1_junction_0" departPos="4.10" departSpeed="0.00" departDelay="9.20" arrival="161.60" arrivalLane="junction_end2_0" arrivalPos="486.40" arrivalSpeed="13.94" duration="149.40" routeLength="993.21" waitingTime="92.40" waitingCount="1" stopTime="0.00" timeLoss="98.52" rerouteNo="0" devices="tripinfo_flow2.3" vType="auto" speedFactor="0.35" vaporized=""/>
    <tripinfo id="flow2.4" depart="16.10" departLane="end1_junction_0" departPos="4.10" departSpeed="0.00" departDelay="12.10" arrival="162.20" arrivalLane="junction_end2_1" arrivalPos="486.40" arrivalSpeed="13.95" duration="146.10" routeLength="993.21" waitingTime="89.20" waitingCount="1" stopTime="0.00" timeLoss="94.87" rerouteNo="0" devices="tripinfo_flow2.4" vType="auto" speedFactor="0.35" vaporized=""/>
    <tripinfo id="flow0.35" depart="117.20" departLane="end1_junction_0" departPos="4.10" departSpeed="0.00" departDelay="82.20" arrival="162.40" arrivalLane="junction_end4_0" arrivalPos="486.40" arrivalSpeed="35.87" duration="45.20" routeLength="977.73" waitingTime="0.00" waitingCount="0" stopTime="0.00" timeLoss="16.91" rerouteNo="0" devices="tripinfo_flow0.35" vType="auto" speedFactor="1.07" vaporized=""/>