<?xml version="1.0" encoding="UTF-8"?>

<!-- generated on 2024-10-22 18:12:55 by Eclipse SUMO sumo Version 1.20.0
<configuration xmlns:xsi="http://www.w3.org/2001/XMLSchema-instance" xsi:noNamespaceSchemaLocation="http://sumo.dlr.de/xsd/sumoConfiguration.xsd">

    <input>
        <net-file value="sim_cfg_grid_3_lanes_2/grid.net.xml"/>
        <route-files value="sim_cfg_grid_3_lanes_2/grid.rou.xml"/>
    </input>

    <output>
        <tripinfo-output value="sim_cfg_grid_3_lanes_2/tripinfo.xml"/>
    </output>

    <time>
        <begin value="0"/>
        <end value="500"/>
        <step-length value="0.1"/>
    </time>

    <traci_server>
        <remote-port value="49772"/>
    </traci_server>

    <gui_only>
        <gui-settings-file value="sim_cfg_grid_3_lanes_2/gui_settings.xml"/>
    </gui_only>

</configuration>
-->

<tripinfos xmlns:xsi="http://www.w3.org/2001/XMLSchema-instance" xsi:noNamespaceSchemaLocation="http://sumo.dlr.de/xsd/tripinfo_file.xsd">
    <tripinfo id="flow4.0" depart="0.40" departLane="C0C1_0" departPos="4.10" departSpeed="0.00" departDelay="0.40" arrival="31.40" arrivalLane="C3C4_0" arrivalPos="72.80" arrivalSpeed="14.20" duration="31.00" routeLength="368.70" waitingTime="0.00" waitingCount="0" stopTime="0.00" timeLoss="5.16" rerouteNo="0" devices="tripinfo_flow4.0" vType="vtypeauto" speedFactor="1.03" vaporized=""/>
    <tripinfo id="flow4.1" depart="3.30" departLane="C0C1_0" departPos="4.10" departSpeed="0.00" departDelay="2.30" arrival="33.10" arrivalLane="C3C4_0" arrivalPos="72.80" arrivalSpeed="14.14" duration="29.80" routeLength="368.70" waitingTime="0.00" waitingCount="0" stopTime="0.00" timeLoss="3.85" rerouteNo="0" devices="tripinfo_flow4.1" vType="vtypeauto" speedFactor="1.03" vaporized=""/>
    <tripinfo id="flow4.2" depart="6.20" departLane="C0C1_0" departPos="4.10" departSpeed="0.00" departDelay="4.20" arrival="38.00" arrivalLane="C3C4_0" arrivalPos="72.80" arrivalSpeed="12.95" duration="31.80" routeLength="368.70" waitingTime="0.00" waitingCount="0" stopTime="0.00" timeLoss="3.43" rerouteNo="0" devices="tripinfo_flow4.2" vType="vtypeauto" speedFactor="0.94" vaporized=""/>
    <tripinfo id="flow4.3" depart="9.10" departLane="C0C1_0" departPos="4.10" departSpeed="0.00" departDelay="6.10" arrival="42.80" arrivalLane="C3C4_0" arrivalPos="72.80" arrivalSpeed="12.02" duration="33.70" routeLength="368.70" waitingTime="0.00" waitingCount="0" stopTime="0.00" timeLoss="3.23" rerouteNo="0" devices="tripinfo_flow4.3" vType="vtypeauto" speedFactor="0.87" vaporized=""/>
    <tripinfo id="flow4.4" depart="12.00" departLane="C0C1_0" departPos="4.10" departSpeed="0.00" departDelay="8.00" arrival="44.30" arrivalLane="C3C4_0" arrivalPos="72.80" arrivalSpeed="13.90" duration="32.30" routeLength="368.70" waitingTime="0.00" waitingCount="0" stopTime="0.00" timeLoss="5.87" rerouteNo="0" devices="tripinfo_flow4.4" vType="vtypeauto" speedFactor="1.01" vaporized=""/>
    <tripinfo id="flow4.5" depart="14.90" departLane="C0C1_0" departPos="4.10" departSpeed="0.00" departDelay="9.90" arrival="47.80" arrivalLane="C3C4_0" arrivalPos="72.80" arrivalSpeed="12.47" duration="32.90" routeLength="368.70" waitingTime="0.00" waitingCount="0" stopTime="0.00" timeLoss="3.39" rerouteNo="0" devices="tripinfo_flow4.5" vType="vtypeauto" speedFactor="0.90" vaporized=""/>
    <tripinfo id="flow4.6" depart="17.80" departLane="C0C1_0" departPos="4.10" departSpeed="0.00" departDelay="11.80" arrival="49.30" arrivalLane="C3C4_0" arrivalPos="72.80" arrivalSpeed="13.77" duration="31.50" routeLength="368.70" waitingTime="0.00" waitingCount="0" stopTime="0.00" timeLoss="4.88" rerouteNo="0" devices="tripinfo_flow4.6" vType="vtypeauto" speedFactor="1.00" vaporized=""/>
    <tripinfo id="flow4.7" depart="20.70" departLane="C0C1_0" departPos="4.10" departSpeed="0.00" departDelay="13.70" arrival="50.80" arrivalLane="C3C4_0" arrivalPos="72.80" arrivalSpeed="15.14" duration="30.10" routeLength="368.70" waitingTime="0.00" waitingCount="0" stopTime="0.00" timeLoss="5.81" rerouteNo="0" devices="tripinfo_flow4.7" vType="vtypeauto" speedFactor="1.10" vaporized=""/>
    <tripinfo id="flow4.8" depart="23.60" departLane="C0C1_0" departPos="4.10" departSpeed="0.00" departDelay="15.60" arrival="52.30" arrivalLane="C3C4_0" arrivalPos="72.80" arrivalSpeed="14.95" duration="28.70" routeLength="368.70" waitingTime="0.00" waitingCount="0" stopTime="0.00" timeLoss="4.12" rerouteNo="0" devices="tripinfo_flow4.8" vType="vtypeauto" speedFactor="1.08" vaporized=""/>
    <tripinfo id="flow6.0" depart="0.00" departLane="D4D3_0" departPos="4.10" departSpeed="0.00" departDelay="0.00" arrival="52.40" arrivalLane="D1D0_0" arrivalPos="72.80" arrivalSpeed="14.52" duration="52.40" routeLength="368.70" waitingTime="14.20" waitingCount="2" stopTime="0.00" timeLoss="27.00" rerouteNo="0" devices="tripinfo_flow6.0" vType="vtypeauto" speedFactor="1.05" vaporized=""/>
    <tripinfo id="flow6.1" depart="2.80" departLane="D4D3_0" departPos="4.10" departSpeed="0.00" departDelay="1.80" arrival="52.40" arrivalLane="D1D0_1" arrivalPos="72.80" arrivalSpeed="15.54" duration="49.60" routeLength="368.70" waitingTime="11.90" waitingCount="2" stopTime="0.00" timeLoss="25.89" rerouteNo="0" devices="tripinfo_flow6.1" vType="vtypeauto" speedFactor="1.12" vaporized=""/>
    <tripinfo id="flow6.3" depart="8.40" departLane="D4D3_0" departPos="4.10" departSpeed="0.00" departDelay="5.40" arrival="53.00" arrivalLane="D1D0_2" arrivalPos="72.80" arrivalSpeed="13.05" duration="44.60" routeLength="368.70" waitingTime="8.20" waitingCount="1" stopTime="0.00" timeLoss="16.53" rerouteNo="0" devices="tripinfo_flow6.3" vType="vtypeauto" speedFactor="0.95" vaporized=""/>
    <tripinfo id="flow6.5" depart="13.90" departLane="D4D3_0" departPos="4.10" departSpeed="0.00" departDelay="8.90" arrival="53.70" arrivalLane="D1D0_0" arrivalPos="72.80" arrivalSpeed="13.91" duration="39.80" routeLength="368.70" waitingTime="0.80" waitingCount="1" stopTime="0.00" timeLoss="12.44" rerouteNo="0" devices="tripinfo_flow6.5" vType="vtypeauto@flow6.5" speedFactor="1.01" vaporized=""/>
    <tripinfo id="flow6.2" depart="5.60" departLane="D4D3_0" departPos="4.10" departSpeed="0.00" departDelay="3.60" arrival="53.80" arrivalLane="D1D0_1" arrivalPos="72.80" arrivalSpeed="13.88" duration="48.20" routeLength="368.70" waitingTime="3.00" waitingCount="1" stopTime="0.00" timeLoss="21.99" rerouteNo="0" devices="tripinfo_flow6.2" vType="vtypeauto@flow6.2" speedFactor="1.01" vaporized=""/>
    <tripinfo id="flow6.4" depart="11.20" departLane="D4D3_0" departPos="4.10" departSpeed="0.00" departDelay="7.20" arrival="54.50" arrivalLane="D1D0_2" arrivalPos="72.80" arrivalSpeed="13.82" duration="43.30" routeLength="368.70" waitingTime="3.50" waitingCount="1" stopTime="0.00" timeLoss="16.55" rerouteNo="0" devices="tripinfo_flow6.4" vType="vtypeauto" speedFactor="0.99" vaporized=""/>
    <tripinfo id="flow6.7" depart="19.40" departLane="D4D3_0" departPos="4.10" departSpeed="0.00" departDelay="12.40" arrival="55.30" arrivalLane="D1D0_1" arrivalPos="72.80" arrivalSpeed="13.71" duration="35.90" routeLength="368.70" waitingTime="0.00" waitingCount="0" stopTime="0.00" timeLoss="9.24" rerouteNo="0" devices="tripinfo_flow6.7" vType="vtypeauto" speedFactor="1.00" vaporized=""/>
    <tripinfo id="flow6.6" depart="16.60" departLane="D4D3_0" departPos="4.10" departSpeed="0.00" departDelay="10.60" arrival="55.80" arrivalLane="D1D0_0" arrivalPos="72.80" arrivalSpeed="12.16" duration="39.20" routeLength="368.70" waitingTime="0.00" waitingCount="0" stopTime="0.00" timeLoss="8.88" rerouteNo="0" devices="tripinfo_flow6.6" vType="vtypeauto" speedFactor="0.88" vaporized=""/>
    <tripinfo id="flow6.9" depart="24.90" departLane="D4D3_0" departPos="4.10" departSpeed="0.00" departDelay="15.90" arrival="56.90" arrivalLane="D1D0_1" arrivalPos="72.80" arrivalSpeed="14.18" duration="32.00" routeLength="368.70" waitingTime="0.00" waitingCount="0" stopTime="0.00" timeLoss="5.96" rerouteNo="0" devices="tripinfo_flow6.9" vType="vtypeauto" speedFactor="1.02" vaporized=""/>
    <tripinfo id="flow6.8" depart="22.20" departLane="D4D3_0" departPos="4.10" departSpeed="0.00" departDelay="14.20" arrival="57.30" arrivalLane="D1D0_0" arrivalPos="72.80" arrivalSpeed="14.03" duration="35.10" routeLength="368.70" waitingTime="0.00" waitingCount="0" stopTime="0.00" timeLoss="8.93" rerouteNo="0" devices="tripinfo_flow6.8" vType="vtypeauto" speedFactor="1.02" vaporized=""/>
    <tripinfo id="flow6.10" depart="27.70" departLane="D4D3_0" departPos="4.10" departSpeed="0.00" departDelay="17.70" arrival="58.80" arrivalLane="D1D0_0" arrivalPos="72.80" arrivalSpeed="14.25" duration="31.10" routeLength="368.70" waitingTime="0.00" waitingCount="0" stopTime="0.00" timeLoss="5.32" rerouteNo="0" devices="tripinfo_flow6.10" vType="vtypeauto" speedFactor="1.03" vaporized=""/>
    <tripinfo id="flow6.11" depart="30.40" departLane="D4D3_0" departPos="4.10" departSpeed="0.00" departDelay="19.40" arrival="61.30" arrivalLane="D1D0_0" arrivalPos="72.80" arrivalSpeed="13.43" duration="30.90" routeLength="368.70" waitingTime="0.00" waitingCount="0" stopTime="0.00" timeLoss="3.38" rerouteNo="0" devices="tripinfo_flow6.11" vType="vtypeauto" speedFactor="0.97" vaporized=""/>
    <tripinfo id="flow6.12" depart="33.20" departLane="D4D3_0" departPos="4.10" departSpeed="0.00" departDelay="21.20" arrival="62.90" arrivalLane="D1D0_0" arrivalPos="72.80" arrivalSpeed="14.02" duration="29.70" routeLength="368.70" waitingTime="0.00" waitingCount="0" stopTime="0.00" timeLoss="3.55" rerouteNo="0" devices="tripinfo_flow6.12" vType="vtypeauto" speedFactor="1.02" vaporized=""/>
    <tripinfo id="flow2.1" depart="2.80" departLane="A0A1_0" departPos="4.10" departSpeed="0.00" departDelay="1.80" arrival="72.60" arrivalLane="C3D3_2" arrivalPos="72.80" arrivalSpeed="6.24" duration="69.80" routeLength="512.81" waitingTime="0.00" waitingCount="0" stopTime="0.00" timeLoss="22.66" rerouteNo="0" devices="tripinfo_flow2.1" vType="vtypeauto" speedFactor="0.86" vaporized=""/>
    <tripinfo id="flow2.0" depart="0.00" departLane="A0A1_0" departPos="4.10" departSpeed="0.00" departDelay="0.00" arrival="74.10" arrivalLane="C3D3_0" arrivalPos="72.80" arrivalSpeed="7.47" duration="74.10" routeLength="512.81" waitingTime="11.50" waitingCount="2" stopTime="0.00" timeLoss="34.21" rerouteNo="0" devices="tripinfo_flow2.0" vType="vtypeauto" speedFactor="1.01" vaporized=""/>
    <tripinfo id="flow2.3" depart="8.40" departLane="A0A1_0" departPos="4.10" departSpeed="0.00" departDelay="5.40" arrival="74.10" arrivalLane="C3D3_1" arrivalPos="72.80" arrivalSpeed="8.71" duration="65.70" routeLength="512.81" waitingTime="0.00" waitingCount="0" stopTime="0.00" timeLoss="20.33" rerouteNo="0" devices="tripinfo_flow2.3" vType="vtypeauto" speedFactor="0.89" vaporized=""/>
    <tripinfo id="flow2.2" depart="5.60" departLane="A0A1_0" departPos="4.10" departSpeed="0.00" departDelay="3.60" arrival="75.80" arrivalLane="C3D3_0" arrivalPos="72.80" arrivalSpeed="10.09" duration="70.20" routeLength="512.81" waitingTime="0.00" waitingCount="0" stopTime="0.00" timeLoss="24.25" rerouteNo="0" devices="tripinfo_flow2.2" vType="vtypeauto" speedFactor="0.88" vaporized=""/>
    <tripinfo id="flow2.4" depart="11.20" departLane="A0A1_0" departPos="4.10" departSpeed="0.00" departDelay="7.20" arrival="77.30" arrivalLane="C3D3_0" arrivalPos="72.80" arrivalSpeed="12.02" duration="66.10" routeLength="512.81" waitingTime="0.00" waitingCount="0" stopTime="0.00" timeLoss="31.90" rerouteNo="0" devices="tripinfo_flow2.4" vType="vtypeauto" speedFactor="1.18" vaporized=""/>
    <tripinfo id="flow6.16" depart="44.20" departLane="D4D3_0" departPos="4.10" departSpeed="0.00" departDelay="28.20" arrival="77.30" arrivalLane="D1D0_2" arrivalPos="72.80" arrivalSpeed="13.76" duration="33.10" routeLength="368.70" waitingTime="0.00" waitingCount="0" stopTime="0.00" timeLoss="6.30" rerouteNo="0" devices="tripinfo_flow6.16" vType="vtypeauto" speedFactor="0.99" vaporized=""/>
    <tripinfo id="flow2.5" depart="14.00" departLane="A0A1_0" departPos="4.10" departSpeed="0.00" departDelay="9.00" arrival="78.80" arrivalLane="C3D3_0" arrivalPos="72.80" arrivalSpeed="13.74" duration="64.80" routeLength="512.81" waitingTime="0.00" waitingCount="0" stopTime="0.00" timeLoss="30.57" rerouteNo="0" devices="tripinfo_flow2.5" vType="vtypeauto" speedFactor="1.18" vaporized=""/>
    <tripinfo id="flow6.17" depart="47.00" departLane="D4D3_0" departPos="4.10" departSpeed="0.00" departDelay="30.00" arrival="79.00" arrivalLane="D1D0_2" arrivalPos="72.80" arrivalSpeed="15.93" duration="32.00" routeLength="368.70" waitingTime="0.00" waitingCount="0" stopTime="0.00" timeLoss="8.90" rerouteNo="0" devices="tripinfo_flow6.17" vType="vtypeauto" speedFactor="1.15" vaporized=""/>
    <tripinfo id="flow1.5" depart="13.90" departLane="A3B3_0" departPos="4.10" departSpeed="0.00" departDelay="8.90" arrival="79.80" arrivalLane="D3E3_2" arrivalPos="72.80" arrivalSpeed="13.43" duration="65.90" routeLength="368.70" waitingTime="25.90" waitingCount="2" stopTime="0.00" timeLoss="38.61" rerouteNo="0" devices="tripinfo_flow1.5" vType="vtypeauto" speedFactor="0.97" vaporized=""/>
    <tripinfo id="flow1.1" depart="2.80" departLane="A3B3_0" departPos="4.10" departSpeed="0.00" departDelay="1.80" arrival="79.90" arrivalLane="D3E3_1" arrivalPos="72.80" arrivalSpeed="13.02" duration="77.10" routeLength="368.70" waitingTime="40.40" waitingCount="1" stopTime="0.00" timeLoss="48.74" rerouteNo="0" devices="tripinfo_flow1.1" vType="vtypeauto" speedFactor="0.94" vaporized=""/>
    <tripinfo id="flow1.0" depart="0.00" departLane="A3B3_0" departPos="4.10" departSpeed="0.00" departDelay="0.00" arrival="80.00" arrivalLane="D3E3_0" arrivalPos="72.80" arrivalSpeed="12.98" duration="80.00" routeLength="368.70" waitingTime="43.70" waitingCount="1" stopTime="0.00" timeLoss="51.65" rerouteNo="0" devices="tripinfo_flow1.0" vType="vtypeauto" speedFactor="0.94" vaporized=""/>
    <tripinfo id="flow2.7" depart="19.50" departLane="A0A1_0" departPos="4.10" departSpeed="0.00" departDelay="12.50" arrival="80.20" arrivalLane="C3D3_0" arrivalPos="72.80" arrivalSpeed="14.99" duration="60.70" routeLength="512.81" waitingTime="0.00" waitingCount="0" stopTime="0.00" timeLoss="26.15" rerouteNo="0" devices="tripinfo_flow2.7" vType="vtypeauto" speedFactor="1.17" vaporized=""/>
    <tripinfo id="flow6.13" depart="35.90" departLane="D4D3_0" departPos="4.10" departSpeed="0.00" departDelay="22.90" arrival="80.30" arrivalLane="D1D0_0" arrivalPos="72.80" arrivalSpeed="12.51" duration="44.40" routeLength="368.70" waitingTime="7.60" waitingCount="1" stopTime="0.00" timeLoss="15.04" rerouteNo="0" devices="tripinfo_flow6.13" vType="vtypeauto" speedFactor="0.91" vaporized=""/>
    <tripinfo id="flow6.14" depart="38.70" departLane="D4D3_0" departPos="4.10" departSpeed="0.00" departDelay="24.70" arrival="80.30" arrivalLane="D1D0_1" arrivalPos="72.80" arrivalSpeed="12.31" duration="41.60" routeLength="368.70" waitingTime="4.00" waitingCount="1" stopTime="0.00" timeLoss="11.83" rerouteNo="0" devices="tripinfo_flow6.14" vType="vtypeauto" speedFactor="0.89" vaporized=""/>
    <tripinfo id="flow1.3" depart="8.30" departLane="A3B3_0" departPos="4.10" departSpeed="0.00" departDelay="5.30" arrival="81.10" arrivalLane="D3E3_1" arrivalPos="72.80" arrivalSpeed="13.94" duration="72.80" routeLength="368.70" waitingTime="29.00" waitingCount="2" stopTime="0.00" timeLoss="45.80" rerouteNo="0" devices="tripinfo_flow1.3" vType="vtypeauto@flow1.3" speedFactor="1.01" vaporized=""/>
    <tripinfo id="flow1.2" depart="5.50" departLane="A3B3_0" departPos="4.10" departSpeed="0.00" departDelay="3.50" arrival="81.20" arrivalLane="D3E3_0" arrivalPos="72.80" arrivalSpeed="13.98" duration="75.70" routeLength="368.70" waitingTime="31.60" waitingCount="2" stopTime="0.00" timeLoss="47.70" rerouteNo="0" devices="tripinfo_flow1.2" vType="vtypeauto@flow1.2" speedFactor="1.01" vaporized=""/>
    <tripinfo id="flow2.8" depart="22.20" departLane="A0A1_0" departPos="4.10" departSpeed="0.00" departDelay="14.20" arrival="81.70" arrivalLane="C3D3_0" arrivalPos="72.80" arrivalSpeed="14.18" duration="59.50" routeLength="512.81" waitingTime="0.00" waitingCount="0" stopTime="0.00" timeLoss="20.11" rerouteNo="0" devices="tripinfo_flow2.8" vType="vtypeauto" speedFactor="1.02" vaporized=""/>
    <tripinfo id="flow6.15" depart="41.40" departLane="D4D3_0" departPos="4.10" departSpeed="0.00" departDelay="26.40" arrival="82.00" arrivalLane="D1D0_0" arrivalPos="72.80" arrivalSpeed="11.94" duration="40.60" routeLength="368.70" waitingTime="0.00" waitingCount="0" stopTime="0.00" timeLoss="9.91" rerouteNo="0" devices="tripinfo_flow6.15" vType="vtypeauto" speedFactor="0.87" vaporized=""/>
    <tripinfo id="flow6.18" depart="49.70" departLane="D4D3_0" departPos="4.10" departSpeed="0.00" departDelay="31.70" arrival="83.50" arrivalLane="D1D0_0" arrivalPos="72.80" arrivalSpeed="13.31" duration="33.80" routeLength="368.70" waitingTime="0.00" waitingCount="0" stopTime="0.00" timeLoss="6.15" rerouteNo="0" devices="tripinfo_flow6.18" vType="vtypeauto" speedFactor="0.96" vaporized=""/>
    <tripinfo id="flow6.19" depart="52.50" departLane="D4D3_0" departPos="4.10" departSpeed="0.00" departDelay="33.50" arrival="85.10" arrivalLane="D1D0_0" arrivalPos="72.80" arrivalSpeed="13.12" duration="32.60" routeLength="368.70" waitingTime="0.00" waitingCount="0" stopTime="0.00" timeLoss="4.72" rerouteNo="0" devices="tripinfo_flow6.19" vType="vtypeauto" speedFactor="0.95" vaporized=""/>
    <tripinfo id="flow2.9" depart="25.00" departLane="A0A1_0" departPos="4.10" departSpeed="0.00" departDelay="16.00" arrival="86.30" arrivalLane="C3D3_0" arrivalPos="72.80" arrivalSpeed="12.14" duration="61.30" routeLength="512.81" waitingTime="0.00" waitingCount="0" stopTime="0.00" timeLoss="15.51" rerouteNo="0" devices="tripinfo_flow2.9" vType="vtypeauto" speedFactor="0.88" vaporized=""/>
    <tripinfo id="flow2.12" depart="33.40" departLane="A0A1_0" departPos="4.10" departSpeed="0.00" departDelay="21.40" arrival="88.10" arrivalLane="C3D3_0" arrivalPos="72.80" arrivalSpeed="13.87" duration="54.70" routeLength="512.81" waitingTime="0.10" waitingCount="1" stopTime="0.00" timeLoss="14.44" rerouteNo="0" devices="tripinfo_flow2.12" vType="vtypeauto" speedFactor="1.00" vaporized=""/>
    <tripinfo id="flow6.20" depart="55.30" departLane="D4D3_0" departPos="4.10" departSpeed="0.00" departDelay="35.30" arrival="88.50" arrivalLane="D1D0_0" arrivalPos="72.80" arrivalSpeed="12.31" duration="33.20" routeLength="368.70" waitingTime="0.00" waitingCount="0" stopTime="0.00" timeLoss="3.21" rerouteNo="0" devices="tripinfo_flow6.20" vType="vtypeauto" speedFactor="0.89" vaporized=""/>
    <tripinfo id="flow6.21" depart="58.00" departLane="D4D3_0" departPos="4.10" departSpeed="0.00" departDelay="37.00" arrival="90.10" arrivalLane="D1D0_0" arrivalPos="72.80" arrivalSpeed="12.85" duration="32.10" routeLength="368.70" waitingTime="0.00" waitingCount="0" stopTime="0.00" timeLoss="3.44" rerouteNo="0" devices="tripinfo_flow6.21" vType="vtypeauto" speedFactor="0.93" vaporized=""/>
    <tripinfo id="flow2.6" depart="16.80" departLane="A0A1_0" departPos="4.10" departSpeed="0.00" departDelay="10.80" arrival="90.60" arrivalLane="C3D3_0" arrivalPos="72.80" arrivalSpeed="14.43" duration="73.80" routeLength="512.81" waitingTime="0.00" waitingCount="0" stopTime="0.00" timeLoss="35.07" rerouteNo="0" devices="tripinfo_flow2.6" vType="vtypeauto" speedFactor="1.04" vaporized=""/>
    <tripinfo id="flow2.13" depart="36.10" departLane="A0A1_0" departPos="4.10" departSpeed="0.00" departDelay="23.10" arrival="94.50" arrivalLane="C3D3_0" arrivalPos="72.80" arrivalSpeed="12.74" duration="58.40" routeLength="512.81" waitingTime="0.50" waitingCount="1" stopTime="0.00" timeLoss="14.58" rerouteNo="0" devices="tripinfo_flow2.13" vType="vtypeauto" speedFactor="0.92" vaporized=""/>
    <tripinfo id="flow2.10" depart="27.80" departLane="A0A1_0" departPos="4.10" departSpeed="0.00" departDelay="17.80" arrival="97.10" arrivalLane="C3D3_0" arrivalPos="72.80" arrivalSpeed="12.96" duration="69.30" routeLength="512.81" waitingTime="2.80" waitingCount="2" stopTime="0.00" timeLoss="26.36" rerouteNo="0" devices="tripinfo_flow2.10" vType="vtypeauto" speedFactor="0.94" vaporized=""/>
    <tripinfo id="flow2.15" depart="41.70" departLane="A0A1_0" departPos="4.10" departSpeed="0.00" departDelay="26.70" arrival="99.60" arrivalLane="C3D3_0" arrivalPos="72.80" arrivalSpeed="14.33" duration="57.90" routeLength="512.81" waitingTime="0.00" waitingCount="0" stopTime="0.00" timeLoss="18.92" rerouteNo="0" devices="tripinfo_flow2.15" vType="vtypeauto" speedFactor="1.03" vaporized=""/>
    <tripinfo id="flow2.11" depart="30.60" departLane="A0A1_0" departPos="4.10" departSpeed="0.00" departDelay="19.60" arrival="101.80" arrivalLane="C3D3_0" arrivalPos="72.80" arrivalSpeed="15.08" duration="71.20" routeLength="512.81" waitingTime="1.10" waitingCount="1" stopTime="0.00" timeLoss="34.03" rerouteNo="0" devices="tripinfo_flow2.11" vType="vtypeauto" speedFactor="1.09" vaporized=""/>
    <tripinfo id="flow2.16" depart="44.40" departLane="A0A1_0" departPos="4.10" departSpeed="0.00" departDelay="28.40" arrival="104.00" arrivalLane="C3D3_0" arrivalPos="72.80" arrivalSpeed="15.16" duration="59.60" routeLength="512.81" waitingTime="0.20" waitingCount="1" stopTime="0.00" timeLoss="22.75" rerouteNo="0" devices="tripinfo_flow2.16" vType="vtypeauto" speedFactor="1.10" vaporized=""/>
    <tripinfo id="flow2.14" depart="38.90" departLane="A0A1_0" departPos="4.10" departSpeed="0.00" departDelay="24.90" arrival="106.70" arrivalLane="C3D3_0" arrivalPos="72.80" arrivalSpeed="14.67" duration="67.80" routeLength="512.81" waitingTime="0.30" waitingCount="1" stopTime="0.00" timeLoss="29.92" rerouteNo="0" devices="tripinfo_flow2.14" vType="vtypeauto" speedFactor="1.06" vaporized=""/>
    <tripinfo id="flow2.18" depart="50.00" departLane="A0A1_0" departPos="4.10" departSpeed="0.00" departDelay="32.00" arrival="108.90" arrivalLane="C3D3_0" arrivalPos="72.80" arrivalSpeed="15.43" duration="58.90" routeLength="512.81" waitingTime="0.00" waitingCount="0" stopTime="0.00" timeLoss="22.87" rerouteNo="0" devices="tripinfo_flow2.18" vType="vtypeauto" speedFactor="1.12" vaporized=""/>
    <tripinfo id="flow4.12" depart="34.90" departLane="C0C1_0" departPos="4.10" departSpeed="0.00" departDelay="22.90" arrival="114.90" arrivalLane="C3C4_2" arrivalPos="72.80" arrivalSpeed="13.94" duration="80.00" routeLength="368.70" waitingTime="44.80" waitingCount="1" stopTime="0.00" timeLoss="53.57" rerouteNo="0" devices="tripinfo_flow4.12" vType="vtypeauto" speedFactor="1.01" vaporized=""/>
    <tripinfo id="flow4.10" depart="29.30" departLane="C0C1_0" departPos="4.10" departSpeed="0.00" departDelay="19.30" arrival="115.40" arrivalLane="C3C4_1" arrivalPos="72.80" arrivalSpeed="13.22" duration="86.10" routeLength="368.70" waitingTime="50.40" waitingCount="1" stopTime="0.00" timeLoss="58.30" rerouteNo="0" devices="tripinfo_flow4.10" vType="vtypeauto" speedFactor="0.96" vaporized=""/>
    <tripinfo id="flow4.9" depart="26.40" departLane="C0C1_0" departPos="4.10" departSpeed="0.00" departDelay="17.40" arrival="116.10" arrivalLane="C3C4_0" arrivalPos="72.80" arrivalSpeed="12.68" duration="89.70" routeLength="368.70" waitingTime="53.30" waitingCount="1" stopTime="0.00" timeLoss="60.59" rerouteNo="0" devices="tripinfo_flow4.9" vType="vtypeauto" speedFactor="0.91" vaporized=""/>
    <tripinfo id="flow4.13" depart="37.80" departLane="C0C1_0" departPos="4.10" departSpeed="0.00" departDelay="24.80" arrival="116.70" arrivalLane="C3C4_1" arrivalPos="72.80" arrivalSpeed="13.96" duration="78.90" routeLength="368.70" waitingTime="39.70" waitingCount="1" stopTime="0.00" timeLoss="53.03" rerouteNo="0" devices="tripinfo_flow4.13" vType="vtypeauto@flow4.13" speedFactor="1.01" vaporized=""/>
    <tripinfo id="flow4.15" depart="43.50" departLane="C0C1_0" departPos="4.10" departSpeed="0.00" departDelay="28.50" arrival="116.90" arrivalLane="C3C4_2" arrivalPos="72.80" arrivalSpeed="13.26" duration="73.40" routeLength="368.70" waitingTime="33.30" waitingCount="1" stopTime="0.00" timeLoss="45.68" rerouteNo="0" devices="tripinfo_flow4.15" vType="vtypeauto" speedFactor="0.96" vaporized=""/>
    <tripinfo id="flow4.11" depart="32.10" departLane="C0C1_0" departPos="4.10" departSpeed="0.00" departDelay="21.10" arrival="117.30" arrivalLane="C3C4_0" arrivalPos="72.80" arrivalSpeed="13.90" duration="85.20" routeLength="368.70" waitingTime="45.50" waitingCount="1" stopTime="0.00" timeLoss="58.71" rerouteNo="0" devices="tripinfo_flow4.11" vType="vtypeauto@flow4.11" speedFactor="1.01" vaporized=""/>
    <tripinfo id="flow4.16" depart="46.40" departLane="C0C1_0" departPos="4.10" departSpeed="0.00" departDelay="30.40" arrival="117.90" arrivalLane="C3C4_1" arrivalPos="72.80" arrivalSpeed="14.00" duration="71.50" routeLength="368.70" waitingTime="31.90" waitingCount="1" stopTime="0.00" timeLoss="46.72" rerouteNo="0" devices="tripinfo_flow4.16" vType="vtypeauto@flow4.16" speedFactor="1.01" vaporized=""/>
    <tripinfo id="flow4.18" depart="52.30" departLane="C0C1_0" departPos="4.10" departSpeed="0.00" departDelay="34.30" arrival="118.40" arrivalLane="C3C4_2" arrivalPos="72.80" arrivalSpeed="14.26" duration="66.10" routeLength="368.70" waitingTime="26.00" waitingCount="1" stopTime="0.00" timeLoss="40.35" rerouteNo="0" devices="tripinfo_flow4.18" vType="vtypeauto" speedFactor="1.03" vaporized=""/>
    <tripinfo id="flow4.14" depart="40.70" departLane="C0C1_0" departPos="4.10" departSpeed="0.00" departDelay="26.70" arrival="118.50" arrivalLane="C3C4_0" arrivalPos="72.80" arrivalSpeed="13.94" duration="77.80" routeLength="368.70" waitingTime="37.50" waitingCount="1" stopTime="0.00" timeLoss="51.01" rerouteNo="0" devices="tripinfo_flow4.14" vType="vtypeauto@flow4.14" speedFactor="1.01" vaporized=""/>
    <tripinfo id="flow4.19" depart="55.10" departLane="C0C1_0" departPos="4.10" departSpeed="0.00" departDelay="36.10" arrival="119.20" arrivalLane="C3C4_1" arrivalPos="72.80" arrivalSpeed="13.96" duration="64.10" routeLength="368.70" waitingTime="23.30" waitingCount="1" stopTime="0.00" timeLoss="37.81" rerouteNo="0" devices="tripinfo_flow4.19" vType="vtypeauto@flow4.19" speedFactor="1.01" vaporized=""/>
    <tripinfo id="flow4.17" depart="49.40" departLane="C0C1_0" departPos="4.10" departSpeed="0.00" departDelay="32.40" arrival="119.80" arrivalLane="C3C4_0" arrivalPos="72.80" arrivalSpeed="13.89" duration="70.40" routeLength="368.70" waitingTime="29.40" waitingCount="1" stopTime="0.00" timeLoss="44.16" rerouteNo="0" devices="tripinfo_flow4.17" vType="vtypeauto@flow4.17" speedFactor="1.01" vaporized=""/>
    <tripinfo id="flow4.21" depart="60.80" departLane="C0C1_0" departPos="4.10" departSpeed="0.00" departDelay="39.80" arrival="120.00" arrivalLane="C3C4_2" arrivalPos="72.80" arrivalSpeed="13.88" duration="59.20" routeLength="368.70" waitingTime="18.50" waitingCount="1" stopTime="0.00" timeLoss="32.72" rerouteNo="0" devices="tripinfo_flow4.21" vType="vtypeauto" speedFactor="1.00" vaporized=""/>
    <tripinfo id="flow0.0" depart="0.00" departLane="B4B3_0" departPos="4.10" departSpeed="0.00" departDelay="0.00" arrival="120.50" arrivalLane="B3A3_2" arrivalPos="72.80" arrivalSpeed="14.68" duration="120.50" routeLength="560.63" waitingTime="54.80" waitingCount="2" stopTime="0.00" timeLoss="80.68" rerouteNo="0" devices="tripinfo_flow0.0" vType="vtypeauto" speedFactor="1.06" vaporized=""/>
    <tripinfo id="flow4.22" depart="63.70" departLane="C0C1_0" departPos="4.10" departSpeed="0.00" departDelay="41.70" arrival="120.50" arrivalLane="C3C4_1" arrivalPos="72.80" arrivalSpeed="13.90" duration="56.80" routeLength="368.70" waitingTime="14.80" waitingCount="1" stopTime="0.00" timeLoss="29.36" rerouteNo="0" devices="tripinfo_flow4.22" vType="vtypeauto@flow4.22" speedFactor="1.01" vaporized=""/>
    <tripinfo id="flow6.25" depart="69.10" departLane="D4D3_0" departPos="4.10" departSpeed="0.00" departDelay="44.10" arrival="120.70" arrivalLane="D1D0_2" arrivalPos="72.80" arrivalSpeed="14.20" duration="51.60" routeLength="368.70" waitingTime="12.80" waitingCount="2" stopTime="0.00" timeLoss="25.73" rerouteNo="0" devices="tripinfo_flow6.25" vType="vtypeauto" speedFactor="1.03" vaporized=""/>
    <tripinfo id="flow4.20" depart="58.00" departLane="C0C1_0" departPos="4.10" departSpeed="0.00" departDelay="38.00" arrival="121.00" arrivalLane="C3C4_0" arrivalPos="72.80" arrivalSpeed="13.98" duration="63.00" routeLength="368.70" waitingTime="19.20" waitingCount="1" stopTime="0.00" timeLoss="33.04" rerouteNo="0" devices="tripinfo_flow4.20" vType="vtypeauto@flow4.20" speedFactor="1.01" vaporized=""/>
    <tripinfo id="flow0.7" depart="12.00" departLane="B4B3_0" departPos="4.10" departSpeed="0.00" departDelay="5.00" arrival="121.50" arrivalLane="B3A3_0" arrivalPos="72.80" arrivalSpeed="11.75" duration="109.50" routeLength="560.63" waitingTime="47.60" waitingCount="3" stopTime="0.00" timeLoss="59.88" rerouteNo="0" devices="tripinfo_flow0.7" vType="vtypeauto" speedFactor="0.85" vaporized=""/>
    <tripinfo id="flow4.25" depart="72.40" departLane="C0C1_0" departPos="4.10" departSpeed="0.00" departDelay="47.40" arrival="121.80" arrivalLane="C3C4_1" arrivalPos="72.80" arrivalSpeed="13.95" duration="49.40" routeLength="368.70" waitingTime="7.40" waitingCount="1" stopTime="0.00" timeLoss="23.47" rerouteNo="0" devices="tripinfo_flow4.25" vType="vtypeauto@flow4.25" speedFactor="1.01" vaporized=""/>
    <tripinfo id="flow6.28" depart="77.40" departLane="D4D3_0" departPos="4.10" departSpeed="0.00" departDelay="49.40" arrival="122.20" arrivalLane="D1D0_2" arrivalPos="72.80" arrivalSpeed="14.31" duration="44.80" routeLength="368.70" waitingTime="0.00" waitingCount="0" stopTime="0.00" timeLoss="19.16" rerouteNo="0" devices="tripinfo_flow6.28" vType="vtypeauto" speedFactor="1.03" vaporized=""/>