<?xml version="1.0" encoding="UTF-8"?>

<!-- generated on 2024-10-27 17:13:02 by Eclipse SUMO sumo Version 1.20.0
<configuration xmlns:xsi="http://www.w3.org/2001/XMLSchema-instance" xsi:noNamespaceSchemaLocation="http://sumo.dlr.de/xsd/sumoConfiguration.xsd">

    <input>
        <net-file value="./sim_cfg_grid_3_lanes_2/grid.net.xml"/>
        <route-files value="./sim_cfg_grid_3_lanes_2/grid.rou.xml"/>
    </input>

    <output>
        <tripinfo-output value="./sim_cfg_grid_3_lanes_2/tripinfo-platooning_0.806.xml"/>
    </output>

    <time>
        <begin value="0"/>
        <end value="500"/>
        <step-length value="0.1"/>
    </time>

    <traci_server>
        <remote-port value="49294"/>
    </traci_server>

    <gui_only>
        <gui-settings-file value="./sim_cfg_grid_3_lanes_2/gui_settings.xml"/>
    </gui_only>

</configuration>
-->

<tripinfos xmlns:xsi="http://www.w3.org/2001/XMLSchema-instance" xsi:noNamespaceSchemaLocation="http://sumo.dlr.de/xsd/tripinfo_file.xsd">
    <tripinfo id="flow4.0" depart="0.40" departLane="C0C1_0" departPos="4.10" departSpeed="0.00" departDelay="0.40" arrival="31.30" arrivalLane="C3C4_0" arrivalPos="72.80" arrivalSpeed="14.30" duration="30.90" routeLength="368.70" waitingTime="0.00" waitingCount="0" stopTime="0.00" timeLoss="5.10" rerouteNo="0" devices="tripinfo_flow4.0" vType="vtypeauto" speedFactor="1.03" vaporized=""/>
    <tripinfo id="flow4.1" depart="3.30" departLane="C0C1_0" departPos="4.10" departSpeed="0.00" departDelay="2.30" arrival="33.00" arrivalLane="C3C4_0" arrivalPos="72.80" arrivalSpeed="14.15" duration="29.70" routeLength="368.70" waitingTime="0.00" waitingCount="0" stopTime="0.00" timeLoss="3.82" rerouteNo="0" devices="tripinfo_flow4.1" vType="vtypeauto" speedFactor="1.03" vaporized=""/>
    <tripinfo id="flow4.2" depart="6.20" departLane="C0C1_0" departPos="4.10" departSpeed="0.00" departDelay="4.20" arrival="38.00" arrivalLane="C3C4_0" arrivalPos="72.80" arrivalSpeed="12.90" duration="31.80" routeLength="368.70" waitingTime="0.00" waitingCount="0" stopTime="0.00" timeLoss="3.44" rerouteNo="0" devices="tripinfo_flow4.2" vType="vtypeauto" speedFactor="0.94" vaporized=""/>
    <tripinfo id="flow4.3" depart="9.10" departLane="C0C1_0" departPos="4.10" departSpeed="0.00" departDelay="6.10" arrival="42.80" arrivalLane="C3C4_0" arrivalPos="72.80" arrivalSpeed="12.08" duration="33.70" routeLength="368.70" waitingTime="0.00" waitingCount="0" stopTime="0.00" timeLoss="3.22" rerouteNo="0" devices="tripinfo_flow4.3" vType="vtypeauto" speedFactor="0.87" vaporized=""/>
    <tripinfo id="flow4.4" depart="12.00" departLane="C0C1_0" departPos="4.10" departSpeed="0.00" departDelay="8.00" arrival="44.30" arrivalLane="C3C4_0" arrivalPos="72.80" arrivalSpeed="13.96" duration="32.30" routeLength="368.70" waitingTime="0.00" waitingCount="0" stopTime="0.00" timeLoss="5.86" rerouteNo="0" devices="tripinfo_flow4.4" vType="vtypeauto" speedFactor="1.01" vaporized=""/>
    <tripinfo id="flow4.5" depart="14.90" departLane="C0C1_0" departPos="4.10" departSpeed="0.00" departDelay="9.90" arrival="47.80" arrivalLane="C3C4_0" arrivalPos="72.80" arrivalSpeed="12.42" duration="32.90" routeLength="368.70" waitingTime="0.00" waitingCount="0" stopTime="0.00" timeLoss="3.39" rerouteNo="0" devices="tripinfo_flow4.5" vType="vtypeauto" speedFactor="0.90" vaporized=""/>
    <tripinfo id="flow4.6" depart="17.80" departLane="C0C1_0" departPos="4.10" departSpeed="0.00" departDelay="11.80" arrival="49.30" arrivalLane="C3C4_0" arrivalPos="72.80" arrivalSpeed="13.77" duration="31.50" routeLength="368.70" waitingTime="0.00" waitingCount="0" stopTime="0.00" timeLoss="4.87" rerouteNo="0" devices="tripinfo_flow4.6" vType="vtypeauto" speedFactor="1.00" vaporized=""/>
    <tripinfo id="flow4.7" depart="20.70" departLane="C0C1_0" departPos="4.10" departSpeed="0.00" departDelay="13.70" arrival="50.80" arrivalLane="C3C4_0" arrivalPos="72.80" arrivalSpeed="15.12" duration="30.10" routeLength="368.70" waitingTime="0.00" waitingCount="0" stopTime="0.00" timeLoss="5.81" rerouteNo="0" devices="tripinfo_flow4.7" vType="vtypeauto" speedFactor="1.10" vaporized=""/>
    <tripinfo id="flow4.8" depart="23.60" departLane="C0C1_0" departPos="4.10" departSpeed="0.00" departDelay="15.60" arrival="52.30" arrivalLane="C3C4_0" arrivalPos="72.80" arrivalSpeed="14.94" duration="28.70" routeLength="368.70" waitingTime="0.00" waitingCount="0" stopTime="0.00" timeLoss="4.12" rerouteNo="0" devices="tripinfo_flow4.8" vType="vtypeauto" speedFactor="1.08" vaporized=""/>
    <tripinfo id="flow6.0" depart="0.00" departLane="D4D3_0" departPos="4.10" departSpeed="0.00" departDelay="0.00" arrival="52.50" arrivalLane="D1D0_0" arrivalPos="72.80" arrivalSpeed="14.46" duration="52.50" routeLength="368.70" waitingTime="14.20" waitingCount="2" stopTime="0.00" timeLoss="27.08" rerouteNo="0" devices="tripinfo_flow6.0" vType="vtypeauto" speedFactor="1.05" vaporized=""/>
    <tripinfo id="flow6.1" depart="2.80" departLane="D4D3_0" departPos="4.10" departSpeed="0.00" departDelay="1.80" arrival="52.60" arrivalLane="D1D0_1" arrivalPos="72.80" arrivalSpeed="15.56" duration="49.80" routeLength="368.70" waitingTime="11.90" waitingCount="2" stopTime="0.00" timeLoss="26.16" rerouteNo="0" devices="tripinfo_flow6.1" vType="vtypeauto" speedFactor="1.12" vaporized=""/>
    <tripinfo id="flow6.3" depart="8.40" departLane="D4D3_0" departPos="4.10" departSpeed="0.00" departDelay="5.40" arrival="53.00" arrivalLane="D1D0_2" arrivalPos="72.80" arrivalSpeed="13.12" duration="44.60" routeLength="368.70" waitingTime="8.20" waitingCount="1" stopTime="0.00" timeLoss="16.58" rerouteNo="0" devices="tripinfo_flow6.3" vType="vtypeauto" speedFactor="0.95" vaporized=""/>
    <tripinfo id="flow6.2" depart="5.60" departLane="D4D3_0" departPos="4.10" departSpeed="0.00" departDelay="3.60" arrival="54.30" arrivalLane="D1D0_1" arrivalPos="72.80" arrivalSpeed="14.08" duration="48.70" routeLength="368.70" waitingTime="3.10" waitingCount="1" stopTime="0.00" timeLoss="22.59" rerouteNo="0" devices="tripinfo_flow6.2" vType="vtypeauto" speedFactor="1.02" vaporized=""/>
    <tripinfo id="flow6.5" depart="13.90" departLane="D4D3_0" departPos="4.10" departSpeed="0.00" departDelay="8.90" arrival="54.30" arrivalLane="D1D0_0" arrivalPos="72.80" arrivalSpeed="13.21" duration="40.40" routeLength="368.70" waitingTime="0.80" waitingCount="1" stopTime="0.00" timeLoss="12.63" rerouteNo="0" devices="tripinfo_flow6.5" vType="vtypeauto" speedFactor="0.96" vaporized=""/>
    <tripinfo id="flow6.4" depart="11.20" departLane="D4D3_0" departPos="4.10" departSpeed="0.00" departDelay="7.20" arrival="54.50" arrivalLane="D1D0_2" arrivalPos="72.80" arrivalSpeed="13.75" duration="43.30" routeLength="368.70" waitingTime="3.40" waitingCount="1" stopTime="0.00" timeLoss="16.60" rerouteNo="0" devices="tripinfo_flow6.4" vType="vtypeauto" speedFactor="0.99" vaporized=""/>
    <tripinfo id="flow6.7" depart="19.40" departLane="D4D3_0" departPos="4.10" departSpeed="0.00" departDelay="12.40" arrival="56.10" arrivalLane="D1D0_2" arrivalPos="72.80" arrivalSpeed="13.75" duration="36.70" routeLength="368.70" waitingTime="0.00" waitingCount="0" stopTime="0.00" timeLoss="9.97" rerouteNo="0" devices="tripinfo_flow6.7" vType="vtypeauto" speedFactor="1.00" vaporized=""/>
    <tripinfo id="flow6.6" depart="16.60" departLane="D4D3_0" departPos="4.10" departSpeed="0.00" departDelay="10.60" arrival="56.30" arrivalLane="D1D0_0" arrivalPos="72.80" arrivalSpeed="12.11" duration="39.70" routeLength="368.70" waitingTime="0.00" waitingCount="0" stopTime="0.00" timeLoss="9.35" rerouteNo="0" devices="tripinfo_flow6.6" vType="vtypeauto" speedFactor="0.88" vaporized=""/>
    <tripinfo id="flow6.9" depart="24.90" departLane="D4D3_0" departPos="4.10" departSpeed="0.00" departDelay="15.90" arrival="56.40" arrivalLane="D1D0_1" arrivalPos="72.80" arrivalSpeed="14.18" duration="31.50" routeLength="368.70" waitingTime="0.00" waitingCount="0" stopTime="0.00" timeLoss="5.53" rerouteNo="0" devices="tripinfo_flow6.9" vType="vtypeauto" speedFactor="1.02" vaporized=""/>
    <tripinfo id="flow6.8" depart="22.20" departLane="D4D3_0" departPos="4.10" departSpeed="0.00" departDelay="14.20" arrival="57.80" arrivalLane="D1D0_0" arrivalPos="72.80" arrivalSpeed="14.01" duration="35.60" routeLength="368.70" waitingTime="0.00" waitingCount="0" stopTime="0.00" timeLoss="9.41" rerouteNo="0" devices="tripinfo_flow6.8" vType="vtypeauto" speedFactor="1.02" vaporized=""/>
    <tripinfo id="flow6.10" depart="27.70" departLane="D4D3_0" departPos="4.10" departSpeed="0.00" departDelay="17.70" arrival="59.20" arrivalLane="D1D0_0" arrivalPos="72.80" arrivalSpeed="14.22" duration="31.50" routeLength="368.70" waitingTime="0.00" waitingCount="0" stopTime="0.00" timeLoss="5.80" rerouteNo="0" devices="tripinfo_flow6.10" vType="vtypeauto" speedFactor="1.03" vaporized=""/>
    <tripinfo id="flow6.11" depart="30.40" departLane="D4D3_0" departPos="4.10" departSpeed="0.00" departDelay="19.40" arrival="61.30" arrivalLane="D1D0_0" arrivalPos="72.80" arrivalSpeed="13.33" duration="30.90" routeLength="368.70" waitingTime="0.00" waitingCount="0" stopTime="0.00" timeLoss="3.37" rerouteNo="0" devices="tripinfo_flow6.11" vType="vtypeauto" speedFactor="0.97" vaporized=""/>
    <tripinfo id="flow6.12" depart="33.20" departLane="D4D3_0" departPos="4.10" departSpeed="0.00" departDelay="21.20" arrival="62.90" arrivalLane="D1D0_0" arrivalPos="72.80" arrivalSpeed="14.02" duration="29.70" routeLength="368.70" waitingTime="0.00" waitingCount="0" stopTime="0.00" timeLoss="3.55" rerouteNo="0" devices="tripinfo_flow6.12" vType="vtypeauto" speedFactor="1.02" vaporized=""/>
    <tripinfo id="flow2.1" depart="2.80" departLane="A0A1_0" departPos="4.10" departSpeed="0.00" departDelay="1.80" arrival="74.60" arrivalLane="C3D3_2" arrivalPos="72.80" arrivalSpeed="7.86" duration="71.80" routeLength="512.81" waitingTime="0.00" waitingCount="0" stopTime="0.00" timeLoss="24.75" rerouteNo="0" devices="tripinfo_flow2.1" vType="vtypeauto" speedFactor="0.86" vaporized=""/>
    <tripinfo id="flow2.0" depart="0.00" departLane="A0A1_0" departPos="4.10" departSpeed="0.00" departDelay="0.00" arrival="76.30" arrivalLane="C3D3_0" arrivalPos="72.80" arrivalSpeed="9.37" duration="76.30" routeLength="512.81" waitingTime="11.70" waitingCount="2" stopTime="0.00" timeLoss="36.39" rerouteNo="0" devices="tripinfo_flow2.0" vType="vtypeauto" speedFactor="1.01" vaporized=""/>
    <tripinfo id="flow2.2" depart="5.60" departLane="A0A1_0" departPos="4.10" departSpeed="0.00" departDelay="3.60" arrival="76.40" arrivalLane="C3D3_1" arrivalPos="72.80" arrivalSpeed="9.09" duration="70.80" routeLength="512.81" waitingTime="0.00" waitingCount="0" stopTime="0.00" timeLoss="24.85" rerouteNo="0" devices="tripinfo_flow2.2" vType="vtypeauto" speedFactor="0.88" vaporized=""/>
    <tripinfo id="flow6.16" depart="44.20" departLane="D4D3_0" departPos="4.10" departSpeed="0.00" departDelay="28.20" arrival="77.30" arrivalLane="D1D0_2" arrivalPos="72.80" arrivalSpeed="13.72" duration="33.10" routeLength="368.70" waitingTime="0.00" waitingCount="0" stopTime="0.00" timeLoss="6.28" rerouteNo="0" devices="tripinfo_flow6.16" vType="vtypeauto" speedFactor="0.99" vaporized=""/>
    <tripinfo id="flow2.3" depart="8.40" departLane="A0A1_0" departPos="4.10" departSpeed="0.00" departDelay="5.40" arrival="77.90" arrivalLane="C3D3_0" arrivalPos="72.80" arrivalSpeed="10.90" duration="69.50" routeLength="512.81" waitingTime="0.00" waitingCount="0" stopTime="0.00" timeLoss="24.20" rerouteNo="0" devices="tripinfo_flow2.3" vType="vtypeauto" speedFactor="0.89" vaporized=""/>
    <tripinfo id="flow2.4" depart="11.20" departLane="A0A1_0" departPos="4.10" departSpeed="0.00" departDelay="7.20" arrival="78.00" arrivalLane="C3D3_1" arrivalPos="72.80" arrivalSpeed="11.83" duration="66.80" routeLength="512.81" waitingTime="0.00" waitingCount="0" stopTime="0.00" timeLoss="32.60" rerouteNo="0" devices="tripinfo_flow2.4" vType="vtypeauto" speedFactor="1.18" vaporized=""/>
    <tripinfo id="flow6.17" depart="47.00" departLane="D4D3_0" departPos="4.10" departSpeed="0.00" departDelay="30.00" arrival="79.10" arrivalLane="D1D0_2" arrivalPos="72.80" arrivalSpeed="15.98" duration="32.10" routeLength="368.70" waitingTime="0.00" waitingCount="0" stopTime="0.00" timeLoss="9.04" rerouteNo="0" devices="tripinfo_flow6.17" vType="vtypeauto" speedFactor="1.15" vaporized=""/>
    <tripinfo id="flow2.5" depart="14.00" departLane="A0A1_0" departPos="4.10" departSpeed="0.00" departDelay="9.00" arrival="79.40" arrivalLane="C3D3_0" arrivalPos="72.80" arrivalSpeed="12.41" duration="65.40" routeLength="512.81" waitingTime="0.00" waitingCount="0" stopTime="0.00" timeLoss="31.19" rerouteNo="0" devices="tripinfo_flow2.5" vType="vtypeauto" speedFactor="1.18" vaporized=""/>
    <tripinfo id="flow1.5" depart="13.90" departLane="A3B3_0" departPos="4.10" departSpeed="0.00" departDelay="8.90" arrival="79.90" arrivalLane="D3E3_2" arrivalPos="72.80" arrivalSpeed="13.51" duration="66.00" routeLength="368.70" waitingTime="25.90" waitingCount="2" stopTime="0.00" timeLoss="38.65" rerouteNo="0" devices="tripinfo_flow1.5" vType="vtypeauto" speedFactor="0.97" vaporized=""/>
    <tripinfo id="flow1.0" depart="0.00" departLane="A3B3_0" departPos="4.10" departSpeed="0.00" departDelay="0.00" arrival="80.00" arrivalLane="D3E3_0" arrivalPos="72.80" arrivalSpeed="12.98" duration="80.00" routeLength="368.70" waitingTime="43.70" waitingCount="1" stopTime="0.00" timeLoss="51.70" rerouteNo="0" devices="tripinfo_flow1.0" vType="vtypeauto" speedFactor="0.94" vaporized=""/>
    <tripinfo id="flow1.1" depart="2.80" departLane="A3B3_0" departPos="4.10" departSpeed="0.00" departDelay="1.80" arrival="80.00" arrivalLane="D3E3_1" arrivalPos="72.80" arrivalSpeed="12.96" duration="77.20" routeLength="368.70" waitingTime="40.40" waitingCount="1" stopTime="0.00" timeLoss="48.84" rerouteNo="0" devices="tripinfo_flow1.1" vType="vtypeauto" speedFactor="0.94" vaporized=""/>
    <tripinfo id="flow6.13" depart="35.90" departLane="D4D3_0" departPos="4.10" departSpeed="0.00" departDelay="22.90" arrival="80.10" arrivalLane="D1D0_0" arrivalPos="72.80" arrivalSpeed="12.56" duration="44.20" routeLength="368.70" waitingTime="7.70" waitingCount="1" stopTime="0.00" timeLoss="14.90" rerouteNo="0" devices="tripinfo_flow6.13" vType="vtypeauto" speedFactor="0.91" vaporized=""/>
    <tripinfo id="flow6.14" depart="38.70" departLane="D4D3_0" departPos="4.10" departSpeed="0.00" departDelay="24.70" arrival="80.20" arrivalLane="D1D0_1" arrivalPos="72.80" arrivalSpeed="12.33" duration="41.50" routeLength="368.70" waitingTime="4.00" waitingCount="1" stopTime="0.00" timeLoss="11.76" rerouteNo="0" devices="tripinfo_flow6.14" vType="vtypeauto" speedFactor="0.89" vaporized=""/>
    <tripinfo id="flow2.7" depart="19.50" departLane="A0A1_0" departPos="4.10" departSpeed="0.00" departDelay="12.50" arrival="80.80" arrivalLane="C3D3_0" arrivalPos="72.80" arrivalSpeed="13.76" duration="61.30" routeLength="512.81" waitingTime="0.00" waitingCount="0" stopTime="0.00" timeLoss="26.82" rerouteNo="0" devices="tripinfo_flow2.7" vType="vtypeauto" speedFactor="1.17" vaporized=""/>
    <tripinfo id="flow1.8" depart="22.30" departLane="A3B3_0" departPos="4.10" departSpeed="0.00" departDelay="14.30" arrival="81.30" arrivalLane="D3E3_2" arrivalPos="72.80" arrivalSpeed="15.77" duration="59.00" routeLength="368.70" waitingTime="11.20" waitingCount="2" stopTime="0.00" timeLoss="35.73" rerouteNo="0" devices="tripinfo_flow1.8" vType="vtypeauto" speedFactor="1.14" vaporized=""/>
    <tripinfo id="flow1.3" depart="8.30" departLane="A3B3_0" departPos="4.10" departSpeed="0.00" departDelay="5.30" arrival="81.50" arrivalLane="D3E3_1" arrivalPos="72.80" arrivalSpeed="13.43" duration="73.20" routeLength="368.70" waitingTime="29.00" waitingCount="2" stopTime="0.00" timeLoss="45.97" rerouteNo="0" devices="tripinfo_flow1.3" vType="vtypeauto" speedFactor="0.97" vaporized=""/>
    <tripinfo id="flow1.2" depart="5.50" departLane="A3B3_0" departPos="4.10" departSpeed="0.00" departDelay="3.50" arrival="81.60" arrivalLane="D3E3_0" arrivalPos="72.80" arrivalSpeed="12.86" duration="76.10" routeLength="368.70" waitingTime="31.70" waitingCount="2" stopTime="0.00" timeLoss="47.45" rerouteNo="0" devices="tripinfo_flow1.2" vType="vtypeauto" speedFactor="0.93" vaporized=""/>
    <tripinfo id="flow6.15" depart="41.40" departLane="D4D3_0" departPos="4.10" departSpeed="0.00" departDelay="26.40" arrival="81.90" arrivalLane="D1D0_0" arrivalPos="72.80" arrivalSpeed="12.01" duration="40.50" routeLength="368.70" waitingTime="0.00" waitingCount="0" stopTime="0.00" timeLoss="9.78" rerouteNo="0" devices="tripinfo_flow6.15" vType="vtypeauto" speedFactor="0.87" vaporized=""/>
    <tripinfo id="flow2.8" depart="22.20" departLane="A0A1_0" departPos="4.10" departSpeed="0.00" departDelay="14.20" arrival="82.30" arrivalLane="C3D3_0" arrivalPos="72.80" arrivalSpeed="14.10" duration="60.10" routeLength="512.81" waitingTime="0.00" waitingCount="0" stopTime="0.00" timeLoss="20.66" rerouteNo="0" devices="tripinfo_flow2.8" vType="vtypeauto" speedFactor="1.02" vaporized=""/>
    <tripinfo id="flow1.6" depart="16.70" departLane="A3B3_0" departPos="4.10" departSpeed="0.00" departDelay="10.70" arrival="83.00" arrivalLane="D3E3_1" arrivalPos="72.80" arrivalSpeed="14.30" duration="66.30" routeLength="368.70" waitingTime="16.80" waitingCount="2" stopTime="0.00" timeLoss="40.70" rerouteNo="0" devices="tripinfo_flow1.6" vType="vtypeauto" speedFactor="1.04" vaporized=""/>
    <tripinfo id="flow1.4" depart="11.10" departLane="A3B3_0" departPos="4.10" departSpeed="0.00" departDelay="7.10" arrival="83.20" arrivalLane="D3E3_0" arrivalPos="72.80" arrivalSpeed="12.92" duration="72.10" routeLength="368.70" waitingTime="21.70" waitingCount="2" stopTime="0.00" timeLoss="43.58" rerouteNo="0" devices="tripinfo_flow1.4" vType="vtypeauto" speedFactor="0.93" vaporized=""/>
    <tripinfo id="flow6.18" depart="49.70" departLane="D4D3_0" departPos="4.10" departSpeed="0.00" departDelay="31.70" arrival="83.40" arrivalLane="D1D0_0" arrivalPos="72.80" arrivalSpeed="13.31" duration="33.70" routeLength="368.70" waitingTime="0.00" waitingCount="0" stopTime="0.00" timeLoss="6.02" rerouteNo="0" devices="tripinfo_flow6.18" vType="vtypeauto" speedFactor="0.96" vaporized=""/>
    <tripinfo id="flow2.9" depart="25.00" departLane="A0A1_0" departPos="4.10" departSpeed="0.00" departDelay="16.00" arrival="84.50" arrivalLane="C3D3_0" arrivalPos="72.80" arrivalSpeed="12.15" duration="59.50" routeLength="512.81" waitingTime="0.00" waitingCount="0" stopTime="0.00" timeLoss="13.77" rerouteNo="0" devices="tripinfo_flow2.9" vType="vtypeauto" speedFactor="0.88" vaporized=""/>
    <tripinfo id="flow6.19" depart="52.50" departLane="D4D3_0" departPos="4.10" departSpeed="0.00" departDelay="33.50" arrival="85.00" arrivalLane="D1D0_0" arrivalPos="72.80" arrivalSpeed="13.21" duration="32.50" routeLength="368.70" waitingTime="0.00" waitingCount="0" stopTime="0.00" timeLoss="4.60" rerouteNo="0" devices="tripinfo_flow6.19" vType="vtypeauto" speedFactor="0.95" vaporized=""/>
    <tripinfo id="flow6.20" depart="55.30" departLane="D4D3_0" departPos="4.10" departSpeed="0.00" departDelay="35.30" arrival="88.50" arrivalLane="D1D0_0" arrivalPos="72.80" arrivalSpeed="12.26" duration="33.20" routeLength="368.70" waitingTime="0.00" waitingCount="0" stopTime="0.00" timeLoss="3.20" rerouteNo="0" devices="tripinfo_flow6.20" vType="vtypeauto" speedFactor="0.89" vaporized=""/>
    <tripinfo id="flow2.10" depart="27.80" departLane="A0A1_0" departPos="4.10" departSpeed="0.00" departDelay="17.80" arrival="89.40" arrivalLane="C3D3_0" arrivalPos="72.80" arrivalSpeed="13.01" duration="61.60" routeLength="512.81" waitingTime="0.60" waitingCount="3" stopTime="0.00" timeLoss="18.68" rerouteNo="0" devices="tripinfo_flow2.10" vType="vtypeauto" speedFactor="0.94" vaporized=""/>
    <tripinfo id="flow6.21" depart="58.00" departLane="D4D3_0" departPos="4.10" departSpeed="0.00" departDelay="37.00" arrival="90.10" arrivalLane="D1D0_0" arrivalPos="72.80" arrivalSpeed="12.77" duration="32.10" routeLength="368.70" waitingTime="0.00" waitingCount="0" stopTime="0.00" timeLoss="3.44" rerouteNo="0" devices="tripinfo_flow6.21" vType="vtypeauto" speedFactor="0.93" vaporized=""/>
    <tripinfo id="flow2.11" depart="30.60" departLane="A0A1_0" departPos="4.10" departSpeed="0.00" departDelay="19.60" arrival="91.10" arrivalLane="C3D3_0" arrivalPos="72.80" arrivalSpeed="15.00" duration="60.50" routeLength="512.81" waitingTime="1.80" waitingCount="1" stopTime="0.00" timeLoss="23.37" rerouteNo="0" devices="tripinfo_flow2.11" vType="vtypeauto" speedFactor="1.09" vaporized=""/>
    <tripinfo id="flow2.6" depart="16.80" departLane="A0A1_0" departPos="4.10" departSpeed="0.00" departDelay="10.80" arrival="93.60" arrivalLane="C3D3_0" arrivalPos="72.80" arrivalSpeed="14.38" duration="76.80" routeLength="512.81" waitingTime="2.70" waitingCount="5" stopTime="0.00" timeLoss="38.09" rerouteNo="0" devices="tripinfo_flow2.6" vType="vtypeauto" speedFactor="1.04" vaporized=""/>
    <tripinfo id="flow2.12" depart="33.40" departLane="A0A1_0" departPos="4.10" departSpeed="0.00" departDelay="21.40" arrival="96.20" arrivalLane="C3D3_0" arrivalPos="72.80" arrivalSpeed="13.80" duration="62.80" routeLength="512.81" waitingTime="0.90" waitingCount="2" stopTime="0.00" timeLoss="22.62" rerouteNo="0" devices="tripinfo_flow2.12" vType="vtypeauto" speedFactor="1.00" vaporized=""/>
    <tripinfo id="flow2.13" depart="36.10" departLane="A0A1_0" departPos="4.10" departSpeed="0.00" departDelay="23.10" arrival="101.80" arrivalLane="C3D3_0" arrivalPos="72.80" arrivalSpeed="12.76" duration="65.70" routeLength="512.81" waitingTime="4.30" waitingCount="4" stopTime="0.00" timeLoss="21.87" rerouteNo="0" devices="tripinfo_flow2.13" vType="vtypeauto" speedFactor="0.92" vaporized=""/>
    <tripinfo id="flow2.15" depart="41.70" departLane="A0A1_0" departPos="4.10" departSpeed="0.00" departDelay="26.70" arrival="106.10" arrivalLane="C3D3_0" arrivalPos="72.80" arrivalSpeed="14.29" duration="64.40" routeLength="512.81" waitingTime="0.40" waitingCount="2" stopTime="0.00" timeLoss="25.40" rerouteNo="0" devices="tripinfo_flow2.15" vType="vtypeauto" speedFactor="1.03" vaporized=""/>
    <tripinfo id="flow2.17" depart="47.20" departLane="A0A1_0" departPos="4.10" departSpeed="0.00" departDelay="30.20" arrival="109.40" arrivalLane="C3D3_0" arrivalPos="72.80" arrivalSpeed="15.26" duration="62.20" routeLength="512.81" waitingTime="0.00" waitingCount="0" stopTime="0.00" timeLoss="25.53" rerouteNo="0" devices="tripinfo_flow2.17" vType="vtypeauto" speedFactor="1.10" vaporized=""/>
    <tripinfo id="flow4.12" depart="34.90" departLane="C0C1_0" departPos="4.10" departSpeed="0.00" departDelay="22.90" arrival="115.00" arrivalLane="C3C4_2" arrivalPos="72.80" arrivalSpeed="13.95" duration="80.10" routeLength="368.70" waitingTime="44.80" waitingCount="1" stopTime="0.00" timeLoss="53.66" rerouteNo="0" devices="tripinfo_flow4.12" vType="vtypeauto" speedFactor="1.01" vaporized=""/>
    <tripinfo id="flow4.10" depart="29.30" departLane="C0C1_0" departPos="4.10" departSpeed="0.00" departDelay="19.30" arrival="116.10" arrivalLane="C3C4_1" arrivalPos="72.80" arrivalSpeed="13.25" duration="86.80" routeLength="368.70" waitingTime="50.40" waitingCount="1" stopTime="0.00" timeLoss="59.00" rerouteNo="0" devices="tripinfo_flow4.10" vType="vtypeauto" speedFactor="0.96" vaporized=""/>
    <tripinfo id="flow4.9" depart="26.40" departLane="C0C1_0" departPos="4.10" departSpeed="0.00" departDelay="17.40" arrival="116.70" arrivalLane="C3C4_0" arrivalPos="72.80" arrivalSpeed="12.62" duration="90.30" routeLength="368.70" waitingTime="53.30" waitingCount="1" stopTime="0.00" timeLoss="61.20" rerouteNo="0" devices="tripinfo_flow4.9" vType="vtypeauto" speedFactor="0.91" vaporized=""/>
    <tripinfo id="flow4.15" depart="43.50" departLane="C0C1_0" departPos="4.10" departSpeed="0.00" departDelay="28.50" arrival="116.90" arrivalLane="C3C4_2" arrivalPos="72.80" arrivalSpeed="13.28" duration="73.40" routeLength="368.70" waitingTime="33.20" waitingCount="1" stopTime="0.00" timeLoss="45.73" rerouteNo="0" devices="tripinfo_flow4.15" vType="vtypeauto" speedFactor="0.96" vaporized=""/>
    <tripinfo id="flow4.13" depart="37.80" departLane="C0C1_0" departPos="4.10" departSpeed="0.00" departDelay="24.80" arrival="117.40" arrivalLane="C3C4_1" arrivalPos="72.80" arrivalSpeed="13.93" duration="79.60" routeLength="368.70" waitingTime="39.80" waitingCount="1" stopTime="0.00" timeLoss="53.73" rerouteNo="0" devices="tripinfo_flow4.13" vType="vtypeauto@flow4.13" speedFactor="1.01" vaporized=""/>
    <tripinfo id="flow4.11" depart="32.10" departLane="C0C1_0" departPos="4.10" departSpeed="0.00" departDelay="21.10" arrival="117.90" arrivalLane="C3C4_0" arrivalPos="72.80" arrivalSpeed="13.96" duration="85.80" routeLength="368.70" waitingTime="45.70" waitingCount="1" stopTime="0.00" timeLoss="59.30" rerouteNo="0" devices="tripinfo_flow4.11" vType="vtypeauto@flow4.11" speedFactor="1.01" vaporized=""/>
    <tripinfo id="flow4.18" depart="52.20" departLane="C0C1_0" departPos="4.10" departSpeed="0.00" departDelay="34.20" arrival="118.40" arrivalLane="C3C4_2" arrivalPos="72.80" arrivalSpeed="14.30" duration="66.20" routeLength="368.70" waitingTime="26.10" waitingCount="1" stopTime="0.00" timeLoss="40.48" rerouteNo="0" devices="tripinfo_flow4.18" vType="vtypeauto" speedFactor="1.03" vaporized=""/>
    <tripinfo id="flow4.16" depart="46.40" departLane="C0C1_0" departPos="4.10" departSpeed="0.00" departDelay="30.40" arrival="118.60" arrivalLane="C3C4_1" arrivalPos="72.80" arrivalSpeed="13.89" duration="72.20" routeLength="368.70" waitingTime="32.20" waitingCount="1" stopTime="0.00" timeLoss="47.41" rerouteNo="0" devices="tripinfo_flow4.16" vType="vtypeauto@flow4.16" speedFactor="1.01" vaporized=""/>
    <tripinfo id="flow4.14" depart="40.70" departLane="C0C1_0" departPos="4.10" departSpeed="0.00" departDelay="26.70" arrival="119.10" arrivalLane="C3C4_0" arrivalPos="72.80" arrivalSpeed="13.89" duration="78.40" routeLength="368.70" waitingTime="37.60" waitingCount="1" stopTime="0.00" timeLoss="51.59" rerouteNo="0" devices="tripinfo_flow4.14" vType="vtypeauto@flow4.14" speedFactor="1.01" vaporized=""/>
    <tripinfo id="flow4.19" depart="55.10" departLane="C0C1_0" departPos="4.10" departSpeed="0.00" departDelay="36.10" arrival="119.90" arrivalLane="C3C4_1" arrivalPos="72.80" arrivalSpeed="13.91" duration="64.80" routeLength="368.70" waitingTime="23.70" waitingCount="1" stopTime="0.00" timeLoss="38.48" rerouteNo="0" devices="tripinfo_flow4.19" vType="vtypeauto@flow4.19" speedFactor="1.01" vaporized=""/>
    <tripinfo id="flow4.21" depart="60.80" departLane="C0C1_0" departPos="4.10" departSpeed="0.00" departDelay="39.80" arrival="120.00" arrivalLane="C3C4_2" arrivalPos="72.80" arrivalSpeed="13.87" duration="59.20" routeLength="368.70" waitingTime="18.40" waitingCount="1" stopTime="0.00" timeLoss="32.76" rerouteNo="0" devices="tripinfo_flow4.21" vType="vtypeauto" speedFactor="1.00" vaporized=""/>
    <tripinfo id="flow4.17" depart="49.30" departLane="C0C1_0" departPos="4.10" departSpeed="0.00" departDelay="32.30" arrival="120.30" arrivalLane="C3C4_0" arrivalPos="72.80" arrivalSpeed="13.94" duration="71.00" routeLength="368.70" waitingTime="29.60" waitingCount="1" stopTime="0.00" timeLoss="44.82" rerouteNo="0" devices="tripinfo_flow4.17" vType="vtypeauto@flow4.17" speedFactor="1.01" vaporized=""/>
    <tripinfo id="flow4.22" depart="63.70" departLane="C0C1_0" departPos="4.10" departSpeed="0.00" departDelay="41.70" arrival="121.10" arrivalLane="C3C4_1" arrivalPos="72.80" arrivalSpeed="13.90" duration="57.40" routeLength="368.70" waitingTime="15.10" waitingCount="1" stopTime="0.00" timeLoss="30.02" rerouteNo="0" devices="tripinfo_flow4.22" vType="vtypeauto@flow4.22" speedFactor="1.01" vaporized=""/>
    <tripinfo id="flow4.20" depart="57.90" departLane="C0C1_0" departPos="4.10" departSpeed="0.00" departDelay="37.90" arrival="121.60" arrivalLane="C3C4_0" arrivalPos="72.80" arrivalSpeed="13.99" duration="63.70" routeLength="368.70" waitingTime="19.40" waitingCount="1" stopTime="0.00" timeLoss="33.69" rerouteNo="0" devices="tripinfo_flow4.20" vType="vtypeauto@flow4.20" speedFactor="1.01" vaporized=""/>
    <tripinfo id="flow4.24" depart="69.40" departLane="C0C1_0" departPos="4.10" departSpeed="0.00" departDelay="45.40" arrival="122.40" arrivalLane="C3C4_2" arrivalPos="72.80" arrivalSpeed="12.39" duration="53.00" routeLength="368.70" waitingTime="10.20" waitingCount="1" stopTime="0.00" timeLoss="23.26" rerouteNo="0" devices="tripinfo_flow4.24" vType="vtypeauto" speedFactor="0.89" vaporized=""/>
    <tripinfo id="flow4.25" depart="72.30" departLane="C0C1_0" departPos="4.10" departSpeed="0.00" departDelay="47.30" arrival="122.40" arrivalLane="C3C4_1" arrivalPos="72.80" arrivalSpeed="13.93" duration="50.10" routeLength="368.70" waitingTime="7.70" waitingCount="1" stopTime="0.00" timeLoss="24.21" rerouteNo="0" devices="tripinfo_flow4.25" vType="vtypeauto@flow4.25" speedFactor="1.01" vaporized=""/>
    <tripinfo id="flow4.23" depart="66.60" departLane="C0C1_0" departPos="4.10" departSpeed="0.00" departDelay="43.60" arrival="122.80" arrivalLane="C3C4_0" arrivalPos="72.80" arrivalSpeed="13.98" duration="56.20" routeLength="368.70" waitingTime="13.10" waitingCount="1" stopTime="0.00" timeLoss="28.92" rerouteNo="0" devices="tripinfo_flow4.23" vType="vtypeauto@flow4.23" speedFactor="1.01" vaporized=""/>
    <tripinfo id="flow6.25" depart="69.10" departLane="D4D3_0" departPos="4.10" departSpeed="0.00" departDelay="44.10" arrival="123.50" arrivalLane="D1D0_1" arrivalPos="72.80" arrivalSpeed="14.20" duration="54.40" routeLength="368.70" waitingTime="15.60" waitingCount="2" stopTime="0.00" timeLoss="28.53" rerouteNo="0" devices="tripinfo_flow6.25" vType="vtypeauto" speedFactor="1.03" vaporized=""/>