<?xml version="1.0" encoding="UTF-8"?>

<!-- generated on 2024-10-22 18:17:17 by Eclipse SUMO sumo Version 1.20.0
<configuration xmlns:xsi="http://www.w3.org/2001/XMLSchema-instance" xsi:noNamespaceSchemaLocation="http://sumo.dlr.de/xsd/sumoConfiguration.xsd">

    <input>
        <net-file value="sim_cfg_grid_3_lanes_2/grid.net.xml"/>
        <route-files value="sim_cfg_grid_3_lanes_2/grid.rou.xml"/>
    </input>

    <output>
        <tripinfo-output value="sim_cfg_grid_3_lanes_2/tripinfo2.xml"/>
    </output>

    <time>
        <begin value="0"/>
        <end value="500"/>
        <step-length value="0.1"/>
    </time>

    <traci_server>
        <remote-port value="49777"/>
    </traci_server>

    <gui_only>
        <gui-settings-file value="sim_cfg_grid_3_lanes_2/gui_settings.xml"/>
    </gui_only>

</configuration>
-->

<tripinfos xmlns:xsi="http://www.w3.org/2001/XMLSchema-instance" xsi:noNamespaceSchemaLocation="http://sumo.dlr.de/xsd/tripinfo_file.xsd">
    <tripinfo id="flow4.0" depart="0.40" departLane="C0C1_0" departPos="4.10" departSpeed="0.00" departDelay="0.40" arrival="31.40" arrivalLane="C3C4_0" arrivalPos="72.80" arrivalSpeed="14.20" duration="31.00" routeLength="368.70" waitingTime="0.00" waitingCount="0" stopTime="0.00" timeLoss="5.16" rerouteNo="0" devices="tripinfo_flow4.0" vType="vtypeauto" speedFactor="1.03" vaporized=""/>
    <tripinfo id="flow4.1" depart="3.30" departLane="C0C1_0" departPos="4.10" departSpeed="0.00" departDelay="2.30" arrival="33.10" arrivalLane="C3C4_0" arrivalPos="72.80" arrivalSpeed="14.14" duration="29.80" routeLength="368.70" waitingTime="0.00" waitingCount="0" stopTime="0.00" timeLoss="3.85" rerouteNo="0" devices="tripinfo_flow4.1" vType="vtypeauto" speedFactor="1.03" vaporized=""/>
    <tripinfo id="flow4.2" depart="6.20" departLane="C0C1_0" departPos="4.10" departSpeed="0.00" departDelay="4.20" arrival="38.00" arrivalLane="C3C4_0" arrivalPos="72.80" arrivalSpeed="12.95" duration="31.80" routeLength="368.70" waitingTime="0.00" waitingCount="0" stopTime="0.00" timeLoss="3.43" rerouteNo="0" devices="tripinfo_flow4.2" vType="vtypeauto" speedFactor="0.94" vaporized=""/>
    <tripinfo id="flow4.3" depart="9.10" departLane="C0C1_0" departPos="4.10" departSpeed="0.00" departDelay="6.10" arrival="42.80" arrivalLane="C3C4_0" arrivalPos="72.80" arrivalSpeed="12.02" duration="33.70" routeLength="368.70" waitingTime="0.00" waitingCount="0" stopTime="0.00" timeLoss="3.23" rerouteNo="0" devices="tripinfo_flow4.3" vType="vtypeauto" speedFactor="0.87" vaporized=""/>
    <tripinfo id="flow4.4" depart="12.00" departLane="C0C1_0" departPos="4.10" departSpeed="0.00" departDelay="8.00" arrival="44.30" arrivalLane="C3C4_0" arrivalPos="72.80" arrivalSpeed="13.90" duration="32.30" routeLength="368.70" waitingTime="0.00" waitingCount="0" stopTime="0.00" timeLoss="5.87" rerouteNo="0" devices="tripinfo_flow4.4" vType="vtypeauto" speedFactor="1.01" vaporized=""/>
    <tripinfo id="flow4.5" depart="14.90" departLane="C0C1_0" departPos="4.10" departSpeed="0.00" departDelay="9.90" arrival="47.80" arrivalLane="C3C4_0" arrivalPos="72.80" arrivalSpeed="12.47" duration="32.90" routeLength="368.70" waitingTime="0.00" waitingCount="0" stopTime="0.00" timeLoss="3.39" rerouteNo="0" devices="tripinfo_flow4.5" vType="vtypeauto" speedFactor="0.90" vaporized=""/>
    <tripinfo id="flow4.6" depart="17.80" departLane="C0C1_0" departPos="4.10" departSpeed="0.00" departDelay="11.80" arrival="49.30" arrivalLane="C3C4_0" arrivalPos="72.80" arrivalSpeed="13.77" duration="31.50" routeLength="368.70" waitingTime="0.00" waitingCount="0" stopTime="0.00" timeLoss="4.88" rerouteNo="0" devices="tripinfo_flow4.6" vType="vtypeauto" speedFactor="1.00" vaporized=""/>
    <tripinfo id="flow4.7" depart="20.70" departLane="C0C1_0" departPos="4.10" departSpeed="0.00" departDelay="13.70" arrival="50.80" arrivalLane="C3C4_0" arrivalPos="72.80" arrivalSpeed="15.14" duration="30.10" routeLength="368.70" waitingTime="0.00" waitingCount="0" stopTime="0.00" timeLoss="5.81" rerouteNo="0" devices="tripinfo_flow4.7" vType="vtypeauto" speedFactor="1.10" vaporized=""/>
    <tripinfo id="flow4.8" depart="23.60" departLane="C0C1_0" departPos="4.10" departSpeed="0.00" departDelay="15.60" arrival="52.30" arrivalLane="C3C4_0" arrivalPos="72.80" arrivalSpeed="14.95" duration="28.70" routeLength="368.70" waitingTime="0.00" waitingCount="0" stopTime="0.00" timeLoss="4.12" rerouteNo="0" devices="tripinfo_flow4.8" vType="vtypeauto" speedFactor="1.08" vaporized=""/>
    <tripinfo id="flow6.0" depart="0.00" departLane="D4D3_0" departPos="4.10" departSpeed="0.00" departDelay="0.00" arrival="52.50" arrivalLane="D1D0_0" arrivalPos="72.80" arrivalSpeed="14.45" duration="52.50" routeLength="368.70" waitingTime="14.20" waitingCount="2" stopTime="0.00" timeLoss="27.06" rerouteNo="0" devices="tripinfo_flow6.0" vType="vtypeauto" speedFactor="1.05" vaporized=""/>
    <tripinfo id="flow6.1" depart="2.80" departLane="D4D3_0" departPos="4.10" departSpeed="0.00" departDelay="1.80" arrival="52.50" arrivalLane="D1D0_1" arrivalPos="72.80" arrivalSpeed="15.58" duration="49.70" routeLength="368.70" waitingTime="11.90" waitingCount="2" stopTime="0.00" timeLoss="26.00" rerouteNo="0" devices="tripinfo_flow6.1" vType="vtypeauto" speedFactor="1.12" vaporized=""/>
    <tripinfo id="flow6.3" depart="8.40" departLane="D4D3_0" departPos="4.10" departSpeed="0.00" departDelay="5.40" arrival="53.00" arrivalLane="D1D0_2" arrivalPos="72.80" arrivalSpeed="13.15" duration="44.60" routeLength="368.70" waitingTime="8.20" waitingCount="1" stopTime="0.00" timeLoss="16.53" rerouteNo="0" devices="tripinfo_flow6.3" vType="vtypeauto" speedFactor="0.95" vaporized=""/>
    <tripinfo id="flow6.2" depart="5.60" departLane="D4D3_0" departPos="4.10" departSpeed="0.00" departDelay="3.60" arrival="54.10" arrivalLane="D1D0_1" arrivalPos="72.80" arrivalSpeed="14.12" duration="48.50" routeLength="368.70" waitingTime="3.10" waitingCount="1" stopTime="0.00" timeLoss="22.41" rerouteNo="0" devices="tripinfo_flow6.2" vType="vtypeauto" speedFactor="1.02" vaporized=""/>
    <tripinfo id="flow6.5" depart="13.90" departLane="D4D3_0" departPos="4.10" departSpeed="0.00" departDelay="8.90" arrival="54.30" arrivalLane="D1D0_0" arrivalPos="72.80" arrivalSpeed="13.17" duration="40.40" routeLength="368.70" waitingTime="0.80" waitingCount="1" stopTime="0.00" timeLoss="12.60" rerouteNo="0" devices="tripinfo_flow6.5" vType="vtypeauto" speedFactor="0.96" vaporized=""/>
    <tripinfo id="flow6.4" depart="11.20" departLane="D4D3_0" departPos="4.10" departSpeed="0.00" departDelay="7.20" arrival="54.50" arrivalLane="D1D0_2" arrivalPos="72.80" arrivalSpeed="13.71" duration="43.30" routeLength="368.70" waitingTime="3.50" waitingCount="1" stopTime="0.00" timeLoss="16.55" rerouteNo="0" devices="tripinfo_flow6.4" vType="vtypeauto" speedFactor="0.99" vaporized=""/>
    <tripinfo id="flow6.7" depart="19.40" departLane="D4D3_0" departPos="4.10" departSpeed="0.00" departDelay="12.40" arrival="55.70" arrivalLane="D1D0_1" arrivalPos="72.80" arrivalSpeed="13.83" duration="36.30" routeLength="368.70" waitingTime="0.00" waitingCount="0" stopTime="0.00" timeLoss="9.58" rerouteNo="0" devices="tripinfo_flow6.7" vType="vtypeauto" speedFactor="1.00" vaporized=""/>
    <tripinfo id="flow6.6" depart="16.60" departLane="D4D3_0" departPos="4.10" departSpeed="0.00" departDelay="10.60" arrival="56.30" arrivalLane="D1D0_0" arrivalPos="72.80" arrivalSpeed="12.11" duration="39.70" routeLength="368.70" waitingTime="0.00" waitingCount="0" stopTime="0.00" timeLoss="9.36" rerouteNo="0" devices="tripinfo_flow6.6" vType="vtypeauto" speedFactor="0.88" vaporized=""/>
    <tripinfo id="flow6.9" depart="24.90" departLane="D4D3_0" departPos="4.10" departSpeed="0.00" departDelay="15.90" arrival="57.20" arrivalLane="D1D0_1" arrivalPos="72.80" arrivalSpeed="14.19" duration="32.30" routeLength="368.70" waitingTime="0.00" waitingCount="0" stopTime="0.00" timeLoss="6.29" rerouteNo="0" devices="tripinfo_flow6.9" vType="vtypeauto" speedFactor="1.02" vaporized=""/>
    <tripinfo id="flow6.8" depart="22.20" departLane="D4D3_0" departPos="4.10" departSpeed="0.00" departDelay="14.20" arrival="57.80" arrivalLane="D1D0_0" arrivalPos="72.80" arrivalSpeed="14.05" duration="35.60" routeLength="368.70" waitingTime="0.00" waitingCount="0" stopTime="0.00" timeLoss="9.41" rerouteNo="0" devices="tripinfo_flow6.8" vType="vtypeauto" speedFactor="1.02" vaporized=""/>
    <tripinfo id="flow6.10" depart="27.70" departLane="D4D3_0" departPos="4.10" departSpeed="0.00" departDelay="17.70" arrival="59.30" arrivalLane="D1D0_0" arrivalPos="72.80" arrivalSpeed="14.28" duration="31.60" routeLength="368.70" waitingTime="0.00" waitingCount="0" stopTime="0.00" timeLoss="5.80" rerouteNo="0" devices="tripinfo_flow6.10" vType="vtypeauto" speedFactor="1.03" vaporized=""/>
    <tripinfo id="flow6.11" depart="30.40" departLane="D4D3_0" departPos="4.10" departSpeed="0.00" departDelay="19.40" arrival="61.30" arrivalLane="D1D0_0" arrivalPos="72.80" arrivalSpeed="13.33" duration="30.90" routeLength="368.70" waitingTime="0.00" waitingCount="0" stopTime="0.00" timeLoss="3.38" rerouteNo="0" devices="tripinfo_flow6.11" vType="vtypeauto" speedFactor="0.97" vaporized=""/>
    <tripinfo id="flow6.12" depart="33.20" departLane="D4D3_0" departPos="4.10" departSpeed="0.00" departDelay="21.20" arrival="62.90" arrivalLane="D1D0_0" arrivalPos="72.80" arrivalSpeed="14.06" duration="29.70" routeLength="368.70" waitingTime="0.00" waitingCount="0" stopTime="0.00" timeLoss="3.55" rerouteNo="0" devices="tripinfo_flow6.12" vType="vtypeauto" speedFactor="1.02" vaporized=""/>
    <tripinfo id="flow2.1" depart="2.80" departLane="A0A1_0" departPos="4.10" departSpeed="0.00" departDelay="1.80" arrival="74.60" arrivalLane="C3D3_2" arrivalPos="72.80" arrivalSpeed="7.83" duration="71.80" routeLength="512.81" waitingTime="0.00" waitingCount="0" stopTime="0.00" timeLoss="24.79" rerouteNo="0" devices="tripinfo_flow2.1" vType="vtypeauto" speedFactor="0.86" vaporized=""/>
    <tripinfo id="flow2.0" depart="0.00" departLane="A0A1_0" departPos="4.10" departSpeed="0.00" departDelay="0.00" arrival="76.30" arrivalLane="C3D3_0" arrivalPos="72.80" arrivalSpeed="9.40" duration="76.30" routeLength="512.81" waitingTime="11.70" waitingCount="3" stopTime="0.00" timeLoss="36.38" rerouteNo="0" devices="tripinfo_flow2.0" vType="vtypeauto" speedFactor="1.01" vaporized=""/>
    <tripinfo id="flow2.2" depart="5.60" departLane="A0A1_0" departPos="4.10" departSpeed="0.00" departDelay="3.60" arrival="76.30" arrivalLane="C3D3_1" arrivalPos="72.80" arrivalSpeed="9.25" duration="70.70" routeLength="512.81" waitingTime="0.00" waitingCount="0" stopTime="0.00" timeLoss="24.79" rerouteNo="0" devices="tripinfo_flow2.2" vType="vtypeauto" speedFactor="0.88" vaporized=""/>
    <tripinfo id="flow6.16" depart="44.20" departLane="D4D3_0" departPos="4.10" departSpeed="0.00" departDelay="28.20" arrival="77.30" arrivalLane="D1D0_2" arrivalPos="72.80" arrivalSpeed="13.71" duration="33.10" routeLength="368.70" waitingTime="0.00" waitingCount="0" stopTime="0.00" timeLoss="6.30" rerouteNo="0" devices="tripinfo_flow6.16" vType="vtypeauto" speedFactor="0.99" vaporized=""/>
    <tripinfo id="flow2.3" depart="8.40" departLane="A0A1_0" departPos="4.10" departSpeed="0.00" departDelay="5.40" arrival="77.80" arrivalLane="C3D3_0" arrivalPos="72.80" arrivalSpeed="10.62" duration="69.40" routeLength="512.81" waitingTime="0.00" waitingCount="0" stopTime="0.00" timeLoss="24.08" rerouteNo="0" devices="tripinfo_flow2.3" vType="vtypeauto" speedFactor="0.89" vaporized=""/>
    <tripinfo id="flow2.4" depart="11.20" departLane="A0A1_0" departPos="4.10" departSpeed="0.00" departDelay="7.20" arrival="78.00" arrivalLane="C3D3_1" arrivalPos="72.80" arrivalSpeed="10.88" duration="66.80" routeLength="512.81" waitingTime="0.00" waitingCount="0" stopTime="0.00" timeLoss="32.56" rerouteNo="0" devices="tripinfo_flow2.4" vType="vtypeauto" speedFactor="1.18" vaporized=""/>
    <tripinfo id="flow6.17" depart="47.00" departLane="D4D3_0" departPos="4.10" departSpeed="0.00" departDelay="30.00" arrival="79.00" arrivalLane="D1D0_2" arrivalPos="72.80" arrivalSpeed="16.00" duration="32.00" routeLength="368.70" waitingTime="0.00" waitingCount="0" stopTime="0.00" timeLoss="8.91" rerouteNo="0" devices="tripinfo_flow6.17" vType="vtypeauto" speedFactor="1.15" vaporized=""/>
    <tripinfo id="flow2.5" depart="14.00" departLane="A0A1_0" departPos="4.10" departSpeed="0.00" departDelay="9.00" arrival="79.30" arrivalLane="C3D3_0" arrivalPos="72.80" arrivalSpeed="12.23" duration="65.30" routeLength="512.81" waitingTime="0.00" waitingCount="0" stopTime="0.00" timeLoss="31.11" rerouteNo="0" devices="tripinfo_flow2.5" vType="vtypeauto" speedFactor="1.18" vaporized=""/>
    <tripinfo id="flow1.0" depart="0.00" departLane="A3B3_0" departPos="4.10" departSpeed="0.00" departDelay="0.00" arrival="79.90" arrivalLane="D3E3_0" arrivalPos="72.80" arrivalSpeed="12.92" duration="79.90" routeLength="368.70" waitingTime="43.70" waitingCount="1" stopTime="0.00" timeLoss="51.58" rerouteNo="0" devices="tripinfo_flow1.0" vType="vtypeauto" speedFactor="0.94" vaporized=""/>
    <tripinfo id="flow1.5" depart="13.90" departLane="A3B3_0" departPos="4.10" departSpeed="0.00" departDelay="8.90" arrival="79.90" arrivalLane="D3E3_2" arrivalPos="72.80" arrivalSpeed="13.51" duration="66.00" routeLength="368.70" waitingTime="25.90" waitingCount="2" stopTime="0.00" timeLoss="38.69" rerouteNo="0" devices="tripinfo_flow1.5" vType="vtypeauto" speedFactor="0.97" vaporized=""/>
    <tripinfo id="flow1.1" depart="2.80" departLane="A3B3_0" departPos="4.10" departSpeed="0.00" departDelay="1.80" arrival="80.00" arrivalLane="D3E3_1" arrivalPos="72.80" arrivalSpeed="12.99" duration="77.20" routeLength="368.70" waitingTime="40.40" waitingCount="1" stopTime="0.00" timeLoss="48.87" rerouteNo="0" devices="tripinfo_flow1.1" vType="vtypeauto" speedFactor="0.94" vaporized=""/>
    <tripinfo id="flow6.13" depart="35.90" departLane="D4D3_0" departPos="4.10" departSpeed="0.00" departDelay="22.90" arrival="80.20" arrivalLane="D1D0_0" arrivalPos="72.80" arrivalSpeed="12.57" duration="44.30" routeLength="368.70" waitingTime="7.60" waitingCount="1" stopTime="0.00" timeLoss="15.01" rerouteNo="0" devices="tripinfo_flow6.13" vType="vtypeauto" speedFactor="0.91" vaporized=""/>
    <tripinfo id="flow6.14" depart="38.70" departLane="D4D3_0" departPos="4.10" departSpeed="0.00" departDelay="24.70" arrival="80.20" arrivalLane="D1D0_1" arrivalPos="72.80" arrivalSpeed="12.29" duration="41.50" routeLength="368.70" waitingTime="4.00" waitingCount="1" stopTime="0.00" timeLoss="11.72" rerouteNo="0" devices="tripinfo_flow6.14" vType="vtypeauto" speedFactor="0.89" vaporized=""/>
    <tripinfo id="flow2.7" depart="19.50" departLane="A0A1_0" departPos="4.10" departSpeed="0.00" departDelay="12.50" arrival="80.80" arrivalLane="C3D3_0" arrivalPos="72.80" arrivalSpeed="13.49" duration="61.30" routeLength="512.81" waitingTime="0.00" waitingCount="0" stopTime="0.00" timeLoss="26.71" rerouteNo="0" devices="tripinfo_flow2.7" vType="vtypeauto" speedFactor="1.17" vaporized=""/>
    <tripinfo id="flow1.8" depart="22.30" departLane="A3B3_0" departPos="4.10" departSpeed="0.00" departDelay="14.30" arrival="81.30" arrivalLane="D3E3_2" arrivalPos="72.80" arrivalSpeed="15.77" duration="59.00" routeLength="368.70" waitingTime="11.20" waitingCount="2" stopTime="0.00" timeLoss="35.77" rerouteNo="0" devices="tripinfo_flow1.8" vType="vtypeauto" speedFactor="1.14" vaporized=""/>
    <tripinfo id="flow1.2" depart="5.50" departLane="A3B3_0" departPos="4.10" departSpeed="0.00" departDelay="3.50" arrival="81.50" arrivalLane="D3E3_0" arrivalPos="72.80" arrivalSpeed="12.75" duration="76.00" routeLength="368.70" waitingTime="31.70" waitingCount="2" stopTime="0.00" timeLoss="47.33" rerouteNo="0" devices="tripinfo_flow1.2" vType="vtypeauto" speedFactor="0.93" vaporized=""/>
    <tripinfo id="flow1.3" depart="8.30" departLane="A3B3_0" departPos="4.10" departSpeed="0.00" departDelay="5.30" arrival="81.50" arrivalLane="D3E3_1" arrivalPos="72.80" arrivalSpeed="13.46" duration="73.20" routeLength="368.70" waitingTime="29.10" waitingCount="2" stopTime="0.00" timeLoss="45.98" rerouteNo="0" devices="tripinfo_flow1.3" vType="vtypeauto" speedFactor="0.97" vaporized=""/>
    <tripinfo id="flow6.15" depart="41.40" departLane="D4D3_0" departPos="4.10" departSpeed="0.00" departDelay="26.40" arrival="82.00" arrivalLane="D1D0_0" arrivalPos="72.80" arrivalSpeed="11.99" duration="40.60" routeLength="368.70" waitingTime="0.00" waitingCount="0" stopTime="0.00" timeLoss="9.87" rerouteNo="0" devices="tripinfo_flow6.15" vType="vtypeauto" speedFactor="0.87" vaporized=""/>
    <tripinfo id="flow2.6" depart="16.80" departLane="A0A1_0" departPos="4.10" departSpeed="0.00" departDelay="10.80" arrival="82.20" arrivalLane="C3D3_0" arrivalPos="72.80" arrivalSpeed="14.47" duration="65.40" routeLength="512.81" waitingTime="0.00" waitingCount="0" stopTime="0.00" timeLoss="26.64" rerouteNo="0" devices="tripinfo_flow2.6" vType="vtypeauto" speedFactor="1.04" vaporized=""/>
    <tripinfo id="flow1.6" depart="16.70" departLane="A3B3_0" departPos="4.10" departSpeed="0.00" departDelay="10.70" arrival="83.00" arrivalLane="D3E3_1" arrivalPos="72.80" arrivalSpeed="14.36" duration="66.30" routeLength="368.70" waitingTime="16.90" waitingCount="2" stopTime="0.00" timeLoss="40.69" rerouteNo="0" devices="tripinfo_flow1.6" vType="vtypeauto" speedFactor="1.04" vaporized=""/>
    <tripinfo id="flow1.4" depart="11.10" departLane="A3B3_0" departPos="4.10" departSpeed="0.00" departDelay="7.10" arrival="83.10" arrivalLane="D3E3_0" arrivalPos="72.80" arrivalSpeed="12.85" duration="72.00" routeLength="368.70" waitingTime="21.70" waitingCount="2" stopTime="0.00" timeLoss="43.46" rerouteNo="0" devices="tripinfo_flow1.4" vType="vtypeauto" speedFactor="0.93" vaporized=""/>
    <tripinfo id="flow6.18" depart="49.70" departLane="D4D3_0" departPos="4.10" departSpeed="0.00" departDelay="31.70" arrival="83.50" arrivalLane="D1D0_0" arrivalPos="72.80" arrivalSpeed="13.24" duration="33.80" routeLength="368.70" waitingTime="0.00" waitingCount="0" stopTime="0.00" timeLoss="6.11" rerouteNo="0" devices="tripinfo_flow6.18" vType="vtypeauto" speedFactor="0.96" vaporized=""/>
    <tripinfo id="flow2.9" depart="25.00" departLane="A0A1_0" departPos="4.10" departSpeed="0.00" departDelay="16.00" arrival="83.90" arrivalLane="C3D3_0" arrivalPos="72.80" arrivalSpeed="12.15" duration="58.90" routeLength="512.81" waitingTime="0.00" waitingCount="0" stopTime="0.00" timeLoss="13.17" rerouteNo="0" devices="tripinfo_flow2.9" vType="vtypeauto" speedFactor="0.88" vaporized=""/>
    <tripinfo id="flow6.19" depart="52.50" departLane="D4D3_0" departPos="4.10" departSpeed="0.00" departDelay="33.50" arrival="85.10" arrivalLane="D1D0_0" arrivalPos="72.80" arrivalSpeed="13.21" duration="32.60" routeLength="368.70" waitingTime="0.00" waitingCount="0" stopTime="0.00" timeLoss="4.68" rerouteNo="0" devices="tripinfo_flow6.19" vType="vtypeauto" speedFactor="0.95" vaporized=""/>
    <tripinfo id="flow6.20" depart="55.30" departLane="D4D3_0" departPos="4.10" departSpeed="0.00" departDelay="35.30" arrival="88.50" arrivalLane="D1D0_0" arrivalPos="72.80" arrivalSpeed="12.25" duration="33.20" routeLength="368.70" waitingTime="0.00" waitingCount="0" stopTime="0.00" timeLoss="3.20" rerouteNo="0" devices="tripinfo_flow6.20" vType="vtypeauto" speedFactor="0.89" vaporized=""/>
    <tripinfo id="flow4.12" depart="34.90" departLane="C0C1_0" departPos="4.10" departSpeed="0.00" departDelay="22.90" arrival="88.90" arrivalLane="C3C4_2" arrivalPos="72.80" arrivalSpeed="13.89" duration="54.00" routeLength="368.70" waitingTime="18.80" waitingCount="1" stopTime="0.00" timeLoss="27.57" rerouteNo="0" devices="tripinfo_flow4.12" vType="vtypeauto" speedFactor="1.01" vaporized=""/>
    <tripinfo id="flow4.10" depart="29.30" departLane="C0C1_0" departPos="4.10" departSpeed="0.00" departDelay="19.30" arrival="89.40" arrivalLane="C3C4_1" arrivalPos="72.80" arrivalSpeed="13.18" duration="60.10" routeLength="368.70" waitingTime="24.30" waitingCount="1" stopTime="0.00" timeLoss="32.27" rerouteNo="0" devices="tripinfo_flow4.10" vType="vtypeauto" speedFactor="0.96" vaporized=""/>
    <tripinfo id="flow4.9" depart="26.40" departLane="C0C1_0" departPos="4.10" departSpeed="0.00" departDelay="17.40" arrival="90.10" arrivalLane="C3C4_0" arrivalPos="72.80" arrivalSpeed="12.59" duration="63.70" routeLength="368.70" waitingTime="27.30" waitingCount="1" stopTime="0.00" timeLoss="34.62" rerouteNo="0" devices="tripinfo_flow4.9" vType="vtypeauto" speedFactor="0.91" vaporized=""/>
    <tripinfo id="flow6.21" depart="58.00" departLane="D4D3_0" departPos="4.10" departSpeed="0.00" departDelay="37.00" arrival="90.10" arrivalLane="D1D0_0" arrivalPos="72.80" arrivalSpeed="12.81" duration="32.10" routeLength="368.70" waitingTime="0.00" waitingCount="0" stopTime="0.00" timeLoss="3.44" rerouteNo="0" devices="tripinfo_flow6.21" vType="vtypeauto" speedFactor="0.93" vaporized=""/>
    <tripinfo id="flow4.13" depart="37.80" departLane="C0C1_0" departPos="4.10" departSpeed="0.00" departDelay="24.80" arrival="90.90" arrivalLane="C3C4_1" arrivalPos="72.80" arrivalSpeed="14.66" duration="53.10" routeLength="368.70" waitingTime="13.80" waitingCount="1" stopTime="0.00" timeLoss="27.94" rerouteNo="0" devices="tripinfo_flow4.13" vType="vtypeauto" speedFactor="1.06" vaporized=""/>
    <tripinfo id="flow4.15" depart="43.50" departLane="C0C1_0" departPos="4.10" departSpeed="0.00" departDelay="28.50" arrival="90.90" arrivalLane="C3C4_2" arrivalPos="72.80" arrivalSpeed="13.27" duration="47.40" routeLength="368.70" waitingTime="7.30" waitingCount="1" stopTime="0.00" timeLoss="19.69" rerouteNo="0" devices="tripinfo_flow4.15" vType="vtypeauto" speedFactor="0.96" vaporized=""/>
    <tripinfo id="flow4.11" depart="32.10" departLane="C0C1_0" departPos="4.10" departSpeed="0.00" departDelay="21.10" arrival="91.60" arrivalLane="C3C4_0" arrivalPos="72.80" arrivalSpeed="13.85" duration="59.50" routeLength="368.70" waitingTime="19.60" waitingCount="1" stopTime="0.00" timeLoss="32.88" rerouteNo="0" devices="tripinfo_flow4.11" vType="vtypeauto" speedFactor="1.00" vaporized=""/>
    <tripinfo id="flow4.16" depart="46.40" departLane="C0C1_0" departPos="4.10" departSpeed="0.00" departDelay="30.40" arrival="92.30" arrivalLane="C3C4_1" arrivalPos="72.80" arrivalSpeed="16.31" duration="45.90" routeLength="368.70" waitingTime="6.60" waitingCount="1" stopTime="0.00" timeLoss="23.32" rerouteNo="0" devices="tripinfo_flow4.16" vType="vtypeauto" speedFactor="1.18" vaporized=""/>
    <tripinfo id="flow4.18" depart="52.20" departLane="C0C1_0" departPos="4.10" departSpeed="0.00" departDelay="34.20" arrival="92.40" arrivalLane="C3C4_2" arrivalPos="72.80" arrivalSpeed="14.27" duration="40.20" routeLength="368.70" waitingTime="0.00" waitingCount="0" stopTime="0.00" timeLoss="14.46" rerouteNo="0" devices="tripinfo_flow4.18" vType="vtypeauto" speedFactor="1.03" vaporized=""/>
    <tripinfo id="flow4.14" depart="40.70" departLane="C0C1_0" departPos="4.10" departSpeed="0.00" departDelay="26.70" arrival="93.20" arrivalLane="C3C4_0" arrivalPos="72.80" arrivalSpeed="13.37" duration="52.50" routeLength="368.70" waitingTime="11.90" waitingCount="1" stopTime="0.00" timeLoss="25.06" rerouteNo="0" devices="tripinfo_flow4.14" vType="vtypeauto" speedFactor="0.97" vaporized=""/>
    <tripinfo id="flow4.19" depart="55.10" departLane="C0C1_0" departPos="4.10" departSpeed="0.00" departDelay="36.10" arrival="94.00" arrivalLane="C3C4_1" arrivalPos="72.80" arrivalSpeed="14.10" duration="38.90" routeLength="368.70" waitingTime="0.00" waitingCount="0" stopTime="0.00" timeLoss="12.71" rerouteNo="0" devices="tripinfo_flow4.19" vType="vtypeauto" speedFactor="1.02" vaporized=""/>
    <tripinfo id="flow4.21" depart="60.90" departLane="C0C1_0" departPos="4.10" departSpeed="0.00" departDelay="39.90" arrival="94.00" arrivalLane="C3C4_2" arrivalPos="72.80" arrivalSpeed="13.87" duration="33.10" routeLength="368.70" waitingTime="0.00" waitingCount="0" stopTime="0.00" timeLoss="6.63" rerouteNo="0" devices="tripinfo_flow4.21" vType="vtypeauto" speedFactor="1.00" vaporized=""/>
    <tripinfo id="flow4.17" depart="49.30" departLane="C0C1_0" departPos="4.10" departSpeed="0.00" departDelay="32.30" arrival="94.70" arrivalLane="C3C4_0" arrivalPos="72.80" arrivalSpeed="14.15" duration="45.40" routeLength="368.70" waitingTime="4.50" waitingCount="1" stopTime="0.00" timeLoss="19.45" rerouteNo="0" devices="tripinfo_flow4.17" vType="vtypeauto" speedFactor="1.02" vaporized=""/>
    <tripinfo id="flow4.22" depart="63.80" departLane="C0C1_0" departPos="4.10" departSpeed="0.00" departDelay="41.80" arrival="96.70" arrivalLane="C3C4_1" arrivalPos="72.80" arrivalSpeed="12.55" duration="32.90" routeLength="368.70" waitingTime="0.00" waitingCount="0" stopTime="0.00" timeLoss="3.68" rerouteNo="0" devices="tripinfo_flow4.22" vType="vtypeauto" speedFactor="0.91" vaporized=""/>
    <tripinfo id="flow4.20" depart="58.00" departLane="C0C1_0" departPos="4.10" departSpeed="0.00" departDelay="38.00" arrival="99.80" arrivalLane="C3C4_0" arrivalPos="72.80" arrivalSpeed="10.12" duration="41.80" routeLength="368.70" waitingTime="0.00" waitingCount="0" stopTime="0.00" timeLoss="5.60" rerouteNo="0" devices="tripinfo_flow4.20" vType="vtypeauto" speedFactor="0.73" vaporized=""/>
    <tripinfo id="flow4.23" depart="66.70" departLane="C0C1_0" departPos="4.10" departSpeed="0.00" departDelay="43.70" arrival="101.40" arrivalLane="C3C4_0" arrivalPos="72.80" arrivalSpeed="12.62" duration="34.70" routeLength="368.70" waitingTime="0.00" waitingCount="0" stopTime="0.00" timeLoss="5.62" rerouteNo="0" devices="tripinfo_flow4.23" vType="vtypeauto" speedFactor="0.91" vaporized=""/>
    <tripinfo id="flow4.24" depart="69.60" departLane="C0C1_0" departPos="4.10" departSpeed="0.00" departDelay="45.60" arrival="103.00" arrivalLane="C3C4_0" arrivalPos="72.80" arrivalSpeed="12.28" duration="33.40" routeLength="368.70" waitingTime="0.00" waitingCount="0" stopTime="0.00" timeLoss="3.62" rerouteNo="0" devices="tripinfo_flow4.24" vType="vtypeauto" speedFactor="0.89" vaporized=""/>
    <tripinfo id="flow4.25" depart="72.50" departLane="C0C1_0" departPos="4.10" departSpeed="0.00" departDelay="47.50" arrival="104.50" arrivalLane="C3C4_0" arrivalPos="72.80" arrivalSpeed="14.74" duration="32.00" routeLength="368.70" waitingTime="0.00" waitingCount="0" stopTime="0.00" timeLoss="7.00" rerouteNo="0" devices="tripinfo_flow4.25" vType="vtypeauto" speedFactor="1.06" vaporized=""/>
    <tripinfo id="flow4.26" depart="75.40" departLane="C0C1_0" departPos="4.10" departSpeed="0.00" departDelay="49.40" arrival="105.90" arrivalLane="C3C4_0" arrivalPos="72.80" arrivalSpeed="14.90" duration="30.50" routeLength="368.70" waitingTime="0.00" waitingCount="0" stopTime="0.00" timeLoss="5.85" rerouteNo="0" devices="tripinfo_flow4.26" vType="vtypeauto" speedFactor="1.08" vaporized=""/>
    <tripinfo id="flow4.27" depart="78.30" departLane="C0C1_0" departPos="4.10" departSpeed="0.00" departDelay="51.30" arrival="107.40" arrivalLane="C3C4_0" arrivalPos="72.80" arrivalSpeed="14.81" duration="29.10" routeLength="368.70" waitingTime="0.00" waitingCount="0" stopTime="0.00" timeLoss="4.21" rerouteNo="0" devices="tripinfo_flow4.27" vType="vtypeauto" speedFactor="1.07" vaporized=""/>
    <tripinfo id="flow4.28" depart="81.20" departLane="C0C1_0" departPos="4.10" departSpeed="0.00" departDelay="53.20" arrival="112.50" arrivalLane="C3C4_0" arrivalPos="72.80" arrivalSpeed="13.05" duration="31.30" routeLength="368.70" waitingTime="0.00" waitingCount="0" stopTime="0.00" timeLoss="3.26" rerouteNo="0" devices="tripinfo_flow4.28" vType="vtypeauto" speedFactor="0.95" vaporized=""/>
    <tripinfo id="flow4.29" depart="84.00" departLane="C0C1_0" departPos="4.10" departSpeed="0.00" departDelay="55.00" arrival="115.00" arrivalLane="C3C4_0" arrivalPos="72.80" arrivalSpeed="13.39" duration="31.00" routeLength="368.70" waitingTime="0.00" waitingCount="0" stopTime="0.00" timeLoss="3.60" rerouteNo="0" devices="tripinfo_flow4.29" vType="vtypeauto" speedFactor="0.97" vaporized=""/>
    <tripinfo id="flow6.25" depart="69.10" departLane="D4D3_0" departPos="4.10" departSpeed="0.00" departDelay="44.10" arrival="120.80" arrivalLane="D1D0_2" arrivalPos="72.80" arrivalSpeed="14.19" duration="51.70" routeLength="368.70" waitingTime="12.60" waitingCount="2" stopTime="0.00" timeLoss="25.75" rerouteNo="0" devices="tripinfo_flow6.25" vType="vtypeauto" speedFactor="1.03" vaporized=""/>
    <tripinfo id="flow6.28" depart="77.40" departLane="D4D3_0" departPos="4.10" departSpeed="0.00" departDelay="49.40" arrival="122.30" arrivalLane="D1D0_2" arrivalPos="72.80" arrivalSpeed="14.33" duration="44.90" routeLength="368.70" waitingTime="0.00" waitingCount="0" stopTime="0.00" timeLoss="19.17" rerouteNo="0" devices="tripinfo_flow6.28" vType="vtypeauto" speedFactor="1.03" vaporized=""/>
    <tripinfo id="flow6.31" depart="85.70" departLane="D4D3_0" departPos="4.10" departSpeed="0.00" departDelay="54.70" arrival="123.70" arrivalLane="D1D0_2" arrivalPos="72.80" arrivalSpeed="14.71" duration="38.00" routeLength="368.70" waitingTime="0.00" waitingCount="0" stopTime="0.00" timeLoss="13.04" rerouteNo="0" devices="tripinfo_flow6.31" vType="vtypeauto" speedFactor="1.06" vaporized=""/>
    <tripinfo id="flow6.32" depart="88.50" departLane="D4D3_0" departPos="4.10" departSpeed="0.00" departDelay="56.50" arrival="125.20" arrivalLane="D1D0_2" arrivalPos="72.80" arrivalSpeed="14.41" duration="36.70" routeLength="368.70" waitingTime="0.00" waitingCount="0" stopTime="0.00" timeLoss="11.18" rerouteNo="0" devices="tripinfo_flow6.32" vType="vtypeauto" speedFactor="1.04" vaporized=""/>