<?xml version="1.0" encoding="UTF-8"?>

<!-- generated on 2024-10-29 13:57:05 by Eclipse SUMO sumo Version 1.20.0
<configuration xmlns:xsi="http://www.w3.org/2001/XMLSchema-instance" xsi:noNamespaceSchemaLocation="http://sumo.dlr.de/xsd/sumoConfiguration.xsd">

    <input>
        <net-file value="./sim_cfg_grid_3_lanes/grid.net.xml"/>
        <route-files value="./sim_cfg_grid_3_lanes/10x0.3.rou.xml"/>
    </input>

    <output>
        <tripinfo-output value="./sim_cfg_grid_3_lanes/tripinfo_0.384.xml"/>
    </output>

    <time>
        <begin value="0"/>
        <end value="500"/>
        <step-length value="0.1"/>
    </time>

    <traci_server>
        <remote-port value="49724"/>
    </traci_server>

    <gui_only>
        <gui-settings-file value="./sim_cfg_grid_3_lanes/gui_settings.xml"/>
    </gui_only>

</configuration>
-->

<tripinfos xmlns:xsi="http://www.w3.org/2001/XMLSchema-instance" xsi:noNamespaceSchemaLocation="http://sumo.dlr.de/xsd/tripinfo_file.xsd">
    <tripinfo id="flow9.1" depart="3.00" departLane="A2B2_0" departPos="4.10" departSpeed="0.00" departDelay="0.00" arrival="40.40" arrivalLane="D2E2_1" arrivalPos="72.80" arrivalSpeed="16.01" duration="37.40" routeLength="368.70" waitingTime="4.20" waitingCount="1" stopTime="0.00" timeLoss="14.48" rerouteNo="0" devices="tripinfo_flow9.1" vType="vtypeauto" speedFactor="1.16" vaporized=""/>
    <tripinfo id="flow9.3" depart="9.00" departLane="A2B2_0" departPos="4.10" departSpeed="0.00" departDelay="0.00" arrival="42.70" arrivalLane="D2E2_2" arrivalPos="72.80" arrivalSpeed="12.43" duration="33.70" routeLength="368.70" waitingTime="0.00" waitingCount="0" stopTime="0.00" timeLoss="4.15" rerouteNo="0" devices="tripinfo_flow9.3" vType="vtypeauto" speedFactor="0.90" vaporized=""/>
    <tripinfo id="flow9.0" depart="0.00" departLane="A2B2_0" departPos="4.10" departSpeed="0.00" departDelay="0.00" arrival="43.80" arrivalLane="D2E2_0" arrivalPos="72.80" arrivalSpeed="11.81" duration="43.80" routeLength="368.70" waitingTime="6.00" waitingCount="1" stopTime="0.00" timeLoss="12.82" rerouteNo="0" devices="tripinfo_flow9.0" vType="vtypeauto" speedFactor="0.86" vaporized=""/>
    <tripinfo id="flow9.2" depart="6.00" departLane="A2B2_0" departPos="4.10" departSpeed="0.00" departDelay="0.00" arrival="45.40" arrivalLane="D2E2_0" arrivalPos="72.80" arrivalSpeed="12.81" duration="39.40" routeLength="368.70" waitingTime="0.00" waitingCount="0" stopTime="0.00" timeLoss="10.86" rerouteNo="0" devices="tripinfo_flow9.2" vType="vtypeauto" speedFactor="0.93" vaporized=""/>
    <tripinfo id="flow9.4" depart="12.00" departLane="A2B2_0" departPos="4.10" departSpeed="0.00" departDelay="0.00" arrival="46.70" arrivalLane="D2E2_1" arrivalPos="72.80" arrivalSpeed="11.71" duration="34.70" routeLength="368.70" waitingTime="0.00" waitingCount="0" stopTime="0.00" timeLoss="3.49" rerouteNo="0" devices="tripinfo_flow9.4" vType="vtypeauto" speedFactor="0.85" vaporized=""/>
    <tripinfo id="flow9.5" depart="15.00" departLane="A2B2_0" departPos="4.10" departSpeed="0.00" departDelay="0.00" arrival="46.90" arrivalLane="D2E2_0" arrivalPos="72.80" arrivalSpeed="13.42" duration="31.90" routeLength="368.70" waitingTime="0.00" waitingCount="0" stopTime="0.00" timeLoss="4.53" rerouteNo="0" devices="tripinfo_flow9.5" vType="vtypeauto" speedFactor="0.97" vaporized=""/>
    <tripinfo id="flow9.6" depart="18.00" departLane="A2B2_0" departPos="4.10" departSpeed="0.00" departDelay="0.00" arrival="48.50" arrivalLane="D2E2_0" arrivalPos="72.80" arrivalSpeed="14.12" duration="30.50" routeLength="368.70" waitingTime="0.00" waitingCount="0" stopTime="0.00" timeLoss="4.44" rerouteNo="0" devices="tripinfo_flow9.6" vType="vtypeauto" speedFactor="1.02" vaporized=""/>
    <tripinfo id="flow9.7" depart="21.00" departLane="A2B2_0" departPos="4.10" departSpeed="0.00" departDelay="0.00" arrival="49.90" arrivalLane="D2E2_0" arrivalPos="72.80" arrivalSpeed="15.08" duration="28.90" routeLength="368.70" waitingTime="0.00" waitingCount="0" stopTime="0.00" timeLoss="4.48" rerouteNo="0" devices="tripinfo_flow9.7" vType="vtypeauto" speedFactor="1.09" vaporized=""/>
    <tripinfo id="flow6.0" depart="0.00" departLane="D4D3_0" departPos="4.10" departSpeed="0.00" departDelay="0.00" arrival="67.40" arrivalLane="D1D0_0" arrivalPos="72.80" arrivalSpeed="14.43" duration="67.40" routeLength="368.70" waitingTime="29.30" waitingCount="2" stopTime="0.00" timeLoss="41.97" rerouteNo="0" devices="tripinfo_flow6.0" vType="vtypeauto" speedFactor="1.05" vaporized=""/>
    <tripinfo id="flow6.2" depart="11.20" departLane="D4D3_0" departPos="4.10" departSpeed="0.00" departDelay="5.20" arrival="69.00" arrivalLane="D1D0_2" arrivalPos="72.80" arrivalSpeed="12.63" duration="57.80" routeLength="368.70" waitingTime="20.40" waitingCount="1" stopTime="0.00" timeLoss="28.78" rerouteNo="0" devices="tripinfo_flow6.2" vType="vtypeauto" speedFactor="0.92" vaporized=""/>
    <tripinfo id="flow6.1" depart="5.60" departLane="D4D3_0" departPos="4.10" departSpeed="0.00" departDelay="2.60" arrival="69.50" arrivalLane="D1D0_0" arrivalPos="72.80" arrivalSpeed="12.19" duration="63.90" routeLength="368.70" waitingTime="22.70" waitingCount="2" stopTime="0.00" timeLoss="33.68" rerouteNo="0" devices="tripinfo_flow6.1" vType="vtypeauto" speedFactor="0.88" vaporized=""/>
    <tripinfo id="flow6.3" depart="16.90" departLane="D4D3_0" departPos="4.10" departSpeed="0.00" departDelay="7.90" arrival="70.50" arrivalLane="D1D0_1" arrivalPos="72.80" arrivalSpeed="13.41" duration="53.60" routeLength="368.70" waitingTime="13.20" waitingCount="1" stopTime="0.00" timeLoss="26.28" rerouteNo="0" devices="tripinfo_flow6.3" vType="vtypeauto" speedFactor="0.97" vaporized=""/>
    <tripinfo id="flow6.4" depart="22.50" departLane="D4D3_0" departPos="4.10" departSpeed="0.00" departDelay="10.50" arrival="70.50" arrivalLane="D1D0_2" arrivalPos="72.80" arrivalSpeed="13.82" duration="48.00" routeLength="368.70" waitingTime="7.50" waitingCount="1" stopTime="0.00" timeLoss="21.35" rerouteNo="0" devices="tripinfo_flow6.4" vType="vtypeauto" speedFactor="1.00" vaporized=""/>
    <tripinfo id="flow6.6" depart="33.70" departLane="D4D3_0" departPos="4.10" departSpeed="0.00" departDelay="15.70" arrival="72.30" arrivalLane="D1D0_2" arrivalPos="72.80" arrivalSpeed="12.49" duration="38.60" routeLength="368.70" waitingTime="0.00" waitingCount="0" stopTime="0.00" timeLoss="9.29" rerouteNo="0" devices="tripinfo_flow6.6" vType="vtypeauto" speedFactor="0.91" vaporized=""/>
    <tripinfo id="flow6.5" depart="28.00" departLane="D4D3_0" departPos="4.10" departSpeed="0.00" departDelay="13.00" arrival="72.60" arrivalLane="D1D0_1" arrivalPos="72.80" arrivalSpeed="12.45" duration="44.60" routeLength="368.70" waitingTime="2.50" waitingCount="1" stopTime="0.00" timeLoss="15.08" rerouteNo="0" devices="tripinfo_flow6.5" vType="vtypeauto" speedFactor="0.90" vaporized=""/>
    <tripinfo id="flow6.7" depart="39.20" departLane="D4D3_0" departPos="4.10" departSpeed="0.00" departDelay="18.20" arrival="74.10" arrivalLane="D1D0_1" arrivalPos="72.80" arrivalSpeed="14.30" duration="34.90" routeLength="368.70" waitingTime="0.00" waitingCount="0" stopTime="0.00" timeLoss="9.19" rerouteNo="0" devices="tripinfo_flow6.7" vType="vtypeauto" speedFactor="1.03" vaporized=""/>
    <tripinfo id="flow6.8" depart="44.80" departLane="D4D3_0" departPos="4.10" departSpeed="0.00" departDelay="20.80" arrival="76.30" arrivalLane="D1D0_1" arrivalPos="72.80" arrivalSpeed="13.80" duration="31.50" routeLength="368.70" waitingTime="0.00" waitingCount="0" stopTime="0.00" timeLoss="4.92" rerouteNo="0" devices="tripinfo_flow6.8" vType="vtypeauto" speedFactor="1.00" vaporized=""/>
    <tripinfo id="flow4.0" depart="0.40" departLane="C0C1_0" departPos="4.10" departSpeed="0.00" departDelay="0.40" arrival="78.50" arrivalLane="C3C4_0" arrivalPos="72.80" arrivalSpeed="14.22" duration="78.10" routeLength="368.70" waitingTime="35.40" waitingCount="3" stopTime="0.00" timeLoss="52.27" rerouteNo="0" devices="tripinfo_flow4.0" vType="vtypeauto" speedFactor="1.03" vaporized=""/>
    <tripinfo id="flow4.1" depart="3.30" departLane="C0C1_0" departPos="4.10" departSpeed="0.00" departDelay="0.30" arrival="78.70" arrivalLane="C3C4_0" arrivalPos="72.80" arrivalSpeed="13.72" duration="75.40" routeLength="368.70" waitingTime="32.10" waitingCount="3" stopTime="0.00" timeLoss="48.62" rerouteNo="0" devices="tripinfo_flow4.1" vType="vtypeauto" speedFactor="0.99" vaporized=""/>
    <tripinfo id="flow4.3" depart="9.20" departLane="C0C1_0" departPos="4.10" departSpeed="0.00" departDelay="0.20" arrival="78.80" arrivalLane="C3C4_2" arrivalPos="72.80" arrivalSpeed="13.73" duration="69.60" routeLength="368.70" waitingTime="27.60" waitingCount="2" stopTime="0.00" timeLoss="42.90" rerouteNo="0" devices="tripinfo_flow4.3" vType="vtypeauto" speedFactor="0.99" vaporized=""/>
    <tripinfo id="flow1.3" depart="9.00" departLane="A3B3_0" departPos="4.10" departSpeed="0.00" departDelay="0.00" arrival="79.30" arrivalLane="D3E3_2" arrivalPos="72.80" arrivalSpeed="15.98" duration="70.30" routeLength="368.70" waitingTime="36.90" waitingCount="1" stopTime="0.00" timeLoss="47.27" rerouteNo="0" devices="tripinfo_flow1.3" vType="vtypeauto" speedFactor="1.15" vaporized=""/>
    <tripinfo id="flow1.0" depart="0.00" departLane="A3B3_0" departPos="4.10" departSpeed="0.00" departDelay="0.00" arrival="79.80" arrivalLane="D3E3_0" arrivalPos="72.80" arrivalSpeed="12.93" duration="79.80" routeLength="368.70" waitingTime="40.20" waitingCount="2" stopTime="0.00" timeLoss="51.51" rerouteNo="0" devices="tripinfo_flow1.0" vType="vtypeauto" speedFactor="0.94" vaporized=""/>
    <tripinfo id="flow1.1" depart="3.00" departLane="A3B3_0" departPos="4.10" departSpeed="0.00" departDelay="0.00" arrival="80.00" arrivalLane="D3E3_1" arrivalPos="72.80" arrivalSpeed="14.25" duration="77.00" routeLength="368.70" waitingTime="37.70" waitingCount="2" stopTime="0.00" timeLoss="51.06" rerouteNo="0" devices="tripinfo_flow1.1" vType="vtypeauto" speedFactor="1.03" vaporized=""/>
    <tripinfo id="flow4.4" depart="12.10" departLane="C0C1_0" departPos="4.10" departSpeed="0.00" departDelay="0.10" arrival="80.20" arrivalLane="C3C4_1" arrivalPos="72.80" arrivalSpeed="14.48" duration="68.10" routeLength="368.70" waitingTime="19.20" waitingCount="2" stopTime="0.00" timeLoss="42.63" rerouteNo="0" devices="tripinfo_flow4.4" vType="vtypeauto" speedFactor="1.04" vaporized=""/>
    <tripinfo id="flow6.9" depart="50.40" departLane="D4D3_0" departPos="4.10" departSpeed="0.00" departDelay="23.40" arrival="80.70" arrivalLane="D1D0_1" arrivalPos="72.80" arrivalSpeed="13.98" duration="30.30" routeLength="368.70" waitingTime="0.00" waitingCount="0" stopTime="0.00" timeLoss="4.00" rerouteNo="0" devices="tripinfo_flow6.9" vType="vtypeauto" speedFactor="1.01" vaporized=""/>
    <tripinfo id="flow1.6" depart="18.00" departLane="A3B3_0" departPos="4.10" departSpeed="0.00" departDelay="0.00" arrival="80.80" arrivalLane="D3E3_2" arrivalPos="72.80" arrivalSpeed="15.52" duration="62.80" routeLength="368.70" waitingTime="24.00" waitingCount="1" stopTime="0.00" timeLoss="38.99" rerouteNo="0" devices="tripinfo_flow1.6" vType="vtypeauto" speedFactor="1.12" vaporized=""/>
    <tripinfo id="flow4.2" depart="6.10" departLane="C0C1_0" departPos="4.10" departSpeed="0.00" departDelay="0.10" arrival="81.00" arrivalLane="C3C4_0" arrivalPos="72.80" arrivalSpeed="11.46" duration="74.90" routeLength="368.70" waitingTime="19.40" waitingCount="2" stopTime="0.00" timeLoss="42.75" rerouteNo="0" devices="tripinfo_flow4.2" vType="vtypeauto" speedFactor="0.83" vaporized=""/>
    <tripinfo id="flow1.2" depart="6.00" departLane="A3B3_0" departPos="4.10" departSpeed="0.00" departDelay="0.00" arrival="81.30" arrivalLane="D3E3_0" arrivalPos="72.80" arrivalSpeed="14.00" duration="75.30" routeLength="368.70" waitingTime="29.10" waitingCount="1" stopTime="0.00" timeLoss="49.02" rerouteNo="0" devices="tripinfo_flow1.2" vType="vtypeauto" speedFactor="1.01" vaporized=""/>
    <tripinfo id="flow1.4" depart="12.00" departLane="A3B3_0" departPos="4.10" departSpeed="0.00" departDelay="0.00" arrival="81.60" arrivalLane="D3E3_1" arrivalPos="72.80" arrivalSpeed="13.20" duration="69.60" routeLength="368.70" waitingTime="29.00" waitingCount="1" stopTime="0.00" timeLoss="41.87" rerouteNo="0" devices="tripinfo_flow1.4" vType="vtypeauto" speedFactor="0.96" vaporized=""/>
    <tripinfo id="flow1.5" depart="15.00" departLane="A3B3_0" departPos="4.10" departSpeed="0.00" departDelay="0.00" arrival="82.70" arrivalLane="D3E3_0" arrivalPos="72.80" arrivalSpeed="16.16" duration="67.70" routeLength="368.70" waitingTime="27.30" waitingCount="1" stopTime="0.00" timeLoss="45.00" rerouteNo="0" devices="tripinfo_flow1.5" vType="vtypeauto" speedFactor="1.17" vaporized=""/>
    <tripinfo id="flow1.10" depart="30.00" departLane="A3B3_0" departPos="4.10" departSpeed="0.00" departDelay="0.00" arrival="82.80" arrivalLane="D3E3_2" arrivalPos="72.80" arrivalSpeed="13.17" duration="52.80" routeLength="368.70" waitingTime="12.00" waitingCount="1" stopTime="0.00" timeLoss="25.02" rerouteNo="0" devices="tripinfo_flow1.10" vType="vtypeauto" speedFactor="0.96" vaporized=""/>
    <tripinfo id="flow1.8" depart="24.00" departLane="A3B3_0" departPos="4.10" departSpeed="0.00" departDelay="0.00" arrival="83.20" arrivalLane="D3E3_1" arrivalPos="72.80" arrivalSpeed="13.86" duration="59.20" routeLength="368.70" waitingTime="14.60" waitingCount="2" stopTime="0.00" timeLoss="32.53" rerouteNo="0" devices="tripinfo_flow1.8" vType="vtypeauto" speedFactor="1.00" vaporized=""/>
    <tripinfo id="flow1.12" depart="36.00" departLane="A3B3_0" departPos="4.10" departSpeed="0.00" departDelay="0.00" arrival="84.30" arrivalLane="D3E3_2" arrivalPos="72.80" arrivalSpeed="15.20" duration="48.30" routeLength="368.70" waitingTime="8.40" waitingCount="1" stopTime="0.00" timeLoss="24.16" rerouteNo="0" devices="tripinfo_flow1.12" vType="vtypeauto" speedFactor="1.10" vaporized=""/>
    <tripinfo id="flow1.7" depart="21.00" departLane="A3B3_0" departPos="4.10" departSpeed="0.00" departDelay="0.00" arrival="84.40" arrivalLane="D3E3_0" arrivalPos="72.80" arrivalSpeed="13.42" duration="63.40" routeLength="368.70" waitingTime="19.00" waitingCount="2" stopTime="0.00" timeLoss="36.09" rerouteNo="0" devices="tripinfo_flow1.7" vType="vtypeauto" speedFactor="0.97" vaporized=""/>
    <tripinfo id="flow1.11" depart="33.00" departLane="A3B3_0" departPos="4.10" departSpeed="0.00" departDelay="0.00" arrival="85.20" arrivalLane="D3E3_1" arrivalPos="72.80" arrivalSpeed="11.93" duration="52.20" routeLength="368.70" waitingTime="6.60" waitingCount="1" stopTime="0.00" timeLoss="21.46" rerouteNo="0" devices="tripinfo_flow1.11" vType="vtypeauto" speedFactor="0.87" vaporized=""/>
    <tripinfo id="flow1.13" depart="39.00" departLane="A3B3_0" departPos="4.10" departSpeed="0.00" departDelay="0.00" arrival="85.70" arrivalLane="D3E3_2" arrivalPos="72.80" arrivalSpeed="14.79" duration="46.70" routeLength="368.70" waitingTime="5.80" waitingCount="1" stopTime="0.00" timeLoss="21.83" rerouteNo="0" devices="tripinfo_flow1.13" vType="vtypeauto" speedFactor="1.07" vaporized=""/>
    <tripinfo id="flow1.9" depart="27.00" departLane="A3B3_0" departPos="4.10" departSpeed="0.00" departDelay="0.00" arrival="86.30" arrivalLane="D3E3_0" arrivalPos="72.80" arrivalSpeed="12.30" duration="59.30" routeLength="368.70" waitingTime="9.20" waitingCount="1" stopTime="0.00" timeLoss="29.47" rerouteNo="0" devices="tripinfo_flow1.9" vType="vtypeauto" speedFactor="0.89" vaporized=""/>
    <tripinfo id="flow6.10" depart="56.00" departLane="D4D3_0" departPos="4.10" departSpeed="0.00" departDelay="26.00" arrival="86.30" arrivalLane="D1D0_1" arrivalPos="72.80" arrivalSpeed="14.01" duration="30.30" routeLength="368.70" waitingTime="0.00" waitingCount="0" stopTime="0.00" timeLoss="4.07" rerouteNo="0" devices="tripinfo_flow6.10" vType="vtypeauto" speedFactor="1.01" vaporized=""/>
    <tripinfo id="flow1.14" depart="42.00" departLane="A3B3_0" departPos="4.10" departSpeed="0.00" departDelay="0.00" arrival="86.70" arrivalLane="D3E3_1" arrivalPos="72.80" arrivalSpeed="14.48" duration="44.70" routeLength="368.70" waitingTime="3.90" waitingCount="1" stopTime="0.00" timeLoss="21.85" rerouteNo="0" devices="tripinfo_flow1.14" vType="vtypeauto" speedFactor="1.16" vaporized=""/>
    <tripinfo id="flow1.16" depart="48.00" departLane="A3B3_0" departPos="4.10" departSpeed="0.00" departDelay="0.00" arrival="87.20" arrivalLane="D3E3_2" arrivalPos="72.80" arrivalSpeed="14.92" duration="39.20" routeLength="368.70" waitingTime="0.00" waitingCount="0" stopTime="0.00" timeLoss="14.52" rerouteNo="0" devices="tripinfo_flow1.16" vType="vtypeauto" speedFactor="1.08" vaporized=""/>
    <tripinfo id="flow9.9" depart="27.00" departLane="A2B2_0" departPos="4.10" departSpeed="0.00" departDelay="0.00" arrival="87.40" arrivalLane="D2E2_1" arrivalPos="72.80" arrivalSpeed="15.14" duration="60.40" routeLength="368.70" waitingTime="22.10" waitingCount="2" stopTime="0.00" timeLoss="36.14" rerouteNo="0" devices="tripinfo_flow9.9" vType="vtypeauto" speedFactor="1.10" vaporized=""/>
    <tripinfo id="flow9.8" depart="24.00" departLane="A2B2_0" departPos="4.10" departSpeed="0.00" departDelay="0.00" arrival="87.70" arrivalLane="D2E2_0" arrivalPos="72.80" arrivalSpeed="14.09" duration="63.70" routeLength="368.70" waitingTime="25.00" waitingCount="2" stopTime="0.00" timeLoss="37.69" rerouteNo="0" devices="tripinfo_flow9.8" vType="vtypeauto" speedFactor="1.02" vaporized=""/>
    <tripinfo id="flow1.15" depart="45.00" departLane="A3B3_0" departPos="4.10" departSpeed="0.00" departDelay="0.00" arrival="87.80" arrivalLane="D3E3_0" arrivalPos="72.80" arrivalSpeed="13.85" duration="42.80" routeLength="368.70" waitingTime="1.90" waitingCount="1" stopTime="0.00" timeLoss="16.32" rerouteNo="0" devices="tripinfo_flow1.15" vType="vtypeauto" speedFactor="1.00" vaporized=""/>
    <tripinfo id="flow9.11" depart="33.00" departLane="A2B2_0" departPos="4.10" departSpeed="0.00" departDelay="0.00" arrival="89.20" arrivalLane="D2E2_2" arrivalPos="72.80" arrivalSpeed="1.02" duration="56.20" routeLength="368.70" waitingTime="19.30" waitingCount="1" stopTime="0.00" timeLoss="31.41" rerouteNo="0" devices="tripinfo_flow9.11" vType="vtypeauto" speedFactor="1.07" vaporized=""/>
    <tripinfo id="flow9.13" depart="39.00" departLane="A2B2_0" departPos="4.10" departSpeed="0.00" departDelay="0.00" arrival="89.30" arrivalLane="D2E2_1" arrivalPos="72.80" arrivalSpeed="13.24" duration="50.30" routeLength="368.70" waitingTime="9.80" waitingCount="1" stopTime="0.00" timeLoss="22.37" rerouteNo="0" devices="tripinfo_flow9.13" vType="vtypeauto" speedFactor="0.95" vaporized=""/>
    <tripinfo id="flow9.10" depart="30.00" departLane="A2B2_0" departPos="4.10" departSpeed="0.00" departDelay="0.00" arrival="89.40" arrivalLane="D2E2_0" arrivalPos="72.80" arrivalSpeed="13.22" duration="59.40" routeLength="368.70" waitingTime="12.20" waitingCount="1" stopTime="0.00" timeLoss="31.66" rerouteNo="0" devices="tripinfo_flow9.10" vType="vtypeauto" speedFactor="0.96" vaporized=""/>
    <tripinfo id="flow9.12" depart="36.00" departLane="A2B2_0" departPos="4.10" departSpeed="0.00" departDelay="0.00" arrival="92.60" arrivalLane="D2E2_2" arrivalPos="72.80" arrivalSpeed="1.19" duration="56.60" routeLength="368.70" waitingTime="13.40" waitingCount="1" stopTime="0.00" timeLoss="30.28" rerouteNo="0" devices="tripinfo_flow9.12" vType="vtypeauto" speedFactor="1.01" vaporized=""/>
    <tripinfo id="flow4.5" depart="15.10" departLane="C0C1_0" departPos="4.10" departSpeed="0.00" departDelay="0.10" arrival="94.70" arrivalLane="C3C4_0" arrivalPos="72.80" arrivalSpeed="13.85" duration="79.60" routeLength="368.70" waitingTime="32.00" waitingCount="3" stopTime="0.00" timeLoss="53.11" rerouteNo="0" devices="tripinfo_flow4.5" vType="vtypeauto" speedFactor="1.00" vaporized=""/>
    <tripinfo id="flow9.15" depart="45.00" departLane="A2B2_0" departPos="4.10" departSpeed="0.00" departDelay="0.00" arrival="103.30" arrivalLane="D2E2_1" arrivalPos="72.80" arrivalSpeed="15.82" duration="58.30" routeLength="368.70" waitingTime="16.60" waitingCount="2" stopTime="0.00" timeLoss="35.01" rerouteNo="0" devices="tripinfo_flow9.15" vType="vtypeauto" speedFactor="1.14" vaporized=""/>
    <tripinfo id="flow9.14" depart="42.00" departLane="A2B2_0" departPos="4.10" departSpeed="0.00" departDelay="0.00" arrival="103.60" arrivalLane="D2E2_0" arrivalPos="72.80" arrivalSpeed="14.37" duration="61.60" routeLength="368.70" waitingTime="19.20" waitingCount="2" stopTime="0.00" timeLoss="36.06" rerouteNo="0" devices="tripinfo_flow9.14" vType="vtypeauto" speedFactor="1.04" vaporized=""/>
    <tripinfo id="flow9.16" depart="48.00" departLane="A2B2_0" departPos="4.10" departSpeed="0.00" departDelay="0.00" arrival="105.50" arrivalLane="D2E2_0" arrivalPos="72.80" arrivalSpeed="13.02" duration="57.50" routeLength="368.70" waitingTime="18.80" waitingCount="1" stopTime="0.00" timeLoss="29.19" rerouteNo="0" devices="tripinfo_flow9.16" vType="vtypeauto" speedFactor="0.94" vaporized=""/>
    <tripinfo id="flow2.0" depart="0.00" departLane="A0A1_0" departPos="4.10" departSpeed="0.00" departDelay="0.00" arrival="109.40" arrivalLane="C3D3_0" arrivalPos="72.80" arrivalSpeed="14.02" duration="109.40" routeLength="512.81" waitingTime="44.60" waitingCount="4" stopTime="0.00" timeLoss="69.53" rerouteNo="0" devices="tripinfo_flow2.0" vType="vtypeauto" speedFactor="1.01" vaporized=""/>
    <tripinfo id="flow2.1" depart="3.00" departLane="A0A1_0" departPos="4.10" departSpeed="0.00" departDelay="0.00" arrival="111.10" arrivalLane="C3D3_0" arrivalPos="72.80" arrivalSpeed="14.54" duration="108.10" routeLength="512.81" waitingTime="30.90" waitingCount="4" stopTime="0.00" timeLoss="69.56" rerouteNo="0" devices="tripinfo_flow2.1" vType="vtypeauto" speedFactor="1.05" vaporized=""/>
    <tripinfo id="flow2.2" depart="6.00" departLane="A0A1_0" departPos="4.10" departSpeed="0.00" departDelay="0.00" arrival="113.50" arrivalLane="C3D3_0" arrivalPos="72.80" arrivalSpeed="13.47" duration="107.50" routeLength="512.81" waitingTime="28.70" waitingCount="2" stopTime="0.00" timeLoss="66.19" rerouteNo="0" devices="tripinfo_flow2.2" vType="vtypeauto" speedFactor="0.97" vaporized=""/>
    <tripinfo id="flow2.4" depart="12.00" departLane="A0A1_0" departPos="4.10" departSpeed="0.00" departDelay="0.00" arrival="115.20" arrivalLane="C3D3_0" arrivalPos="72.80" arrivalSpeed="15.09" duration="103.20" routeLength="512.81" waitingTime="26.80" waitingCount="1" stopTime="0.00" timeLoss="66.14" rerouteNo="0" devices="tripinfo_flow2.4" vType="vtypeauto" speedFactor="1.09" vaporized=""/>
    <tripinfo id="flow0.8" depart="24.00" departLane="B4B3_0" departPos="4.10" departSpeed="0.00" departDelay="0.00" arrival="117.10" arrivalLane="B3A3_2" arrivalPos="72.80" arrivalSpeed="14.37" duration="93.10" routeLength="560.63" waitingTime="29.00" waitingCount="3" stopTime="0.00" timeLoss="52.32" rerouteNo="0" devices="tripinfo_flow0.8" vType="vtypeauto" speedFactor="1.03" vaporized=""/>
    <tripinfo id="flow2.3" depart="9.00" departLane="A0A1_0" departPos="4.10" departSpeed="0.00" departDelay="0.00" arrival="117.60" arrivalLane="C3D3_0" arrivalPos="72.80" arrivalSpeed="13.87" duration="108.60" routeLength="512.81" waitingTime="25.10" waitingCount="1" stopTime="0.00" timeLoss="68.51" rerouteNo="0" devices="tripinfo_flow2.3" vType="vtypeauto" speedFactor="1.01" vaporized=""/>
    <tripinfo id="flow0.0" depart="0.00" departLane="B4B3_0" departPos="4.10" departSpeed="0.00" departDelay="0.00" arrival="118.60" arrivalLane="B3A3_2" arrivalPos="72.80" arrivalSpeed="14.62" duration="118.60" routeLength="560.63" waitingTime="51.80" waitingCount="2" stopTime="0.00" timeLoss="78.78" rerouteNo="0" devices="tripinfo_flow0.0" vType="vtypeauto" speedFactor="1.06" vaporized=""/>
    <tripinfo id="flow2.5" depart="15.00" departLane="A0A1_0" departPos="4.10" departSpeed="0.00" departDelay="0.00" arrival="119.90" arrivalLane="C3D3_0" arrivalPos="72.80" arrivalSpeed="14.08" duration="104.90" routeLength="512.81" waitingTime="28.20" waitingCount="2" stopTime="0.00" timeLoss="65.16" rerouteNo="0" devices="tripinfo_flow2.5" vType="vtypeauto" speedFactor="1.02" vaporized=""/>
    <tripinfo id="flow2.6" depart="18.00" departLane="A0A1_0" departPos="4.10" departSpeed="0.00" departDelay="0.00" arrival="121.80" arrivalLane="C3D3_0" arrivalPos="72.80" arrivalSpeed="13.99" duration="103.80" routeLength="512.81" waitingTime="34.30" waitingCount="3" stopTime="0.00" timeLoss="64.11" rerouteNo="0" devices="tripinfo_flow2.6" vType="vtypeauto" speedFactor="1.02" vaporized=""/>
    <tripinfo id="flow2.7" depart="21.00" departLane="A0A1_0" departPos="4.10" departSpeed="0.00" departDelay="0.00" arrival="124.20" arrivalLane="C3D3_0" arrivalPos="72.80" arrivalSpeed="12.99" duration="103.20" routeLength="512.81" waitingTime="27.70" waitingCount="6" stopTime="0.00" timeLoss="60.35" rerouteNo="0" devices="tripinfo_flow2.7" vType="vtypeauto" speedFactor="0.94" vaporized=""/>
    <tripinfo id="flow2.8" depart="24.00" departLane="A0A1_0" departPos="4.10" departSpeed="0.00" departDelay="0.00" arrival="126.20" arrivalLane="C3D3_0" arrivalPos="72.80" arrivalSpeed="14.08" duration="102.20" routeLength="512.81" waitingTime="30.40" waitingCount="2" stopTime="0.00" timeLoss="62.48" rerouteNo="0" devices="tripinfo_flow2.8" vType="vtypeauto" speedFactor="1.02" vaporized=""/>
    <tripinfo id="flow2.11" depart="33.00" departLane="A0A1_0" departPos="4.10" departSpeed="0.00" departDelay="0.00" arrival="127.90" arrivalLane="C3D3_0" arrivalPos="72.80" arrivalSpeed="15.20" duration="94.90" routeLength="512.81" waitingTime="16.00" waitingCount="3" stopTime="0.00" timeLoss="58.20" rerouteNo="0" devices="tripinfo_flow2.11" vType="vtypeauto" speedFactor="1.10" vaporized=""/>
    <tripinfo id="flow8.0" depart="2.80" departLane="D4D3_0" departPos="4.10" departSpeed="0.00" departDelay="2.80" arrival="129.70" arrivalLane="B1A1_0" arrivalPos="72.80" arrivalSpeed="12.99" duration="126.90" routeLength="550.53" waitingTime="58.20" waitingCount="3" stopTime="0.00" timeLoss="83.87" rerouteNo="0" devices="tripinfo_flow8.0" vType="vtypeauto" speedFactor="0.94" vaporized=""/>
    <tripinfo id="flow8.1" depart="8.40" departLane="D4D3_0" departPos="4.10" departSpeed="0.00" departDelay="5.40" arrival="129.70" arrivalLane="B1A1_1" arrivalPos="72.80" arrivalSpeed="12.92" duration="121.30" routeLength="550.53" waitingTime="52.60" waitingCount="2" stopTime="0.00" timeLoss="78.21" rerouteNo="0" devices="tripinfo_flow8.1" vType="vtypeauto" speedFactor="0.94" vaporized=""/>
    <tripinfo id="flow0.9" depart="27.00" departLane="B4B3_0" departPos="4.10" departSpeed="0.00" departDelay="0.00" arrival="129.70" arrivalLane="B3A3_2" arrivalPos="72.80" arrivalSpeed="14.10" duration="102.70" routeLength="560.63" waitingTime="26.70" waitingCount="10" stopTime="0.00" timeLoss="61.17" rerouteNo="0" devices="tripinfo_flow0.9" vType="vtypeauto" speedFactor="1.02" vaporized=""/>
    <tripinfo id="flow2.10" depart="30.00" departLane="A0A1_0" departPos="4.10" departSpeed="0.00" departDelay="0.00" arrival="130.70" arrivalLane="C3D3_0" arrivalPos="72.80" arrivalSpeed="13.41" duration="100.70" routeLength="512.81" waitingTime="15.00" waitingCount="4" stopTime="0.00" timeLoss="59.05" rerouteNo="0" devices="tripinfo_flow2.10" vType="vtypeauto" speedFactor="0.97" vaporized=""/>
    <tripinfo id="flow8.2" depart="14.10" departLane="D4D3_0" departPos="4.10" departSpeed="0.00" departDelay="8.10" arrival="131.20" arrivalLane="B1A1_1" arrivalPos="72.80" arrivalSpeed="15.71" duration="117.10" routeLength="550.53" waitingTime="47.30" waitingCount="2" stopTime="0.00" timeLoss="81.34" rerouteNo="0" devices="tripinfo_flow8.2" vType="vtypeauto" speedFactor="1.13" vaporized=""/>
    <tripinfo id="flow8.3" depart="19.70" departLane="D4D3_0" departPos="4.10" departSpeed="0.00" departDelay="10.70" arrival="131.20" arrivalLane="B1A1_0" arrivalPos="72.80" arrivalSpeed="15.19" duration="111.50" routeLength="550.53" waitingTime="44.80" waitingCount="2" stopTime="0.00" timeLoss="74.83" rerouteNo="0" devices="tripinfo_flow8.3" vType="vtypeauto" speedFactor="1.10" vaporized=""/>
    <tripinfo id="flow8.4" depart="25.20" departLane="D4D3_0" departPos="4.10" departSpeed="0.00" departDelay="13.20" arrival="132.00" arrivalLane="B1A1_2" arrivalPos="72.80" arrivalSpeed="12.15" duration="106.80" routeLength="550.53" waitingTime="36.00" waitingCount="2" stopTime="0.00" timeLoss="60.68" rerouteNo="0" devices="tripinfo_flow8.4" vType="vtypeauto" speedFactor="0.88" vaporized=""/>
    <tripinfo id="flow6.11" depart="61.50" departLane="D4D3_0" departPos="4.10" departSpeed="0.00" departDelay="28.50" arrival="132.30" arrivalLane="D1D0_0" arrivalPos="72.80" arrivalSpeed="16.33" duration="70.80" routeLength="368.70" waitingTime="28.30" waitingCount="3" stopTime="0.00" timeLoss="48.25" rerouteNo="0" devices="tripinfo_flow6.11" vType="vtypeauto" speedFactor="1.18" vaporized=""/>
    <tripinfo id="flow6.12" depart="67.00" departLane="D4D3_0" departPos="4.10" departSpeed="0.00" departDelay="31.00" arrival="132.60" arrivalLane="D1D0_2" arrivalPos="72.80" arrivalSpeed="14.26" duration="65.60" routeLength="368.70" waitingTime="22.20" waitingCount="3" stopTime="0.00" timeLoss="39.88" rerouteNo="0" devices="tripinfo_flow6.12" vType="vtypeauto" speedFactor="1.03" vaporized=""/>
    <tripinfo id="flow2.18" depart="54.00" departLane="A0A1_0" departPos="4.10" departSpeed="0.00" departDelay="0.00" arrival="132.60" arrivalLane="C3D3_0" arrivalPos="72.80" arrivalSpeed="14.28" duration="78.60" routeLength="512.81" waitingTime="12.40" waitingCount="2" stopTime="0.00" timeLoss="39.41" rerouteNo="0" devices="tripinfo_flow2.18" vType="vtypeauto" speedFactor="1.03" vaporized=""/>