<?xml version="1.0" encoding="UTF-8"?>

<!-- generated on 2024-11-21 14:48:38 by Eclipse SUMO sumo Version 1.20.0
<configuration xmlns:xsi="http://www.w3.org/2001/XMLSchema-instance" xsi:noNamespaceSchemaLocation="http://sumo.dlr.de/xsd/sumoConfiguration.xsd">

    <input>
        <net-file value="./sim_cfg_grid_3_lanes/grid.net.xml"/>
        <route-files value="./sim_cfg_grid_3_lanes/10x1.rou.xml"/>
    </input>

    <output>
        <tripinfo-output value="./sim_cfg_grid_3_lanes/tripinfo-platooning_1.152.xml"/>
    </output>

    <time>
        <begin value="0"/>
        <end value="500"/>
        <step-length value="0.1"/>
    </time>

    <traci_server>
        <remote-port value="49518"/>
    </traci_server>

    <gui_only>
        <gui-settings-file value="./sim_cfg_grid_3_lanes/gui_settings.xml"/>
    </gui_only>

</configuration>
-->

<tripinfos xmlns:xsi="http://www.w3.org/2001/XMLSchema-instance" xsi:noNamespaceSchemaLocation="http://sumo.dlr.de/xsd/tripinfo_file.xsd">
    <tripinfo id="flow9.1" depart="2.80" departLane="A2B2_0" departPos="4.10" departSpeed="0.00" departDelay="1.80" arrival="40.40" arrivalLane="D2E2_1" arrivalPos="72.80" arrivalSpeed="15.99" duration="37.60" routeLength="368.70" waitingTime="4.20" waitingCount="1" stopTime="0.00" timeLoss="14.66" rerouteNo="0" devices="tripinfo_flow9.1" vType="vtypeauto" speedFactor="1.16" vaporized=""/>
    <tripinfo id="flow9.3" depart="8.30" departLane="A2B2_0" departPos="4.10" departSpeed="0.00" departDelay="5.30" arrival="42.60" arrivalLane="D2E2_2" arrivalPos="72.80" arrivalSpeed="3.78" duration="34.30" routeLength="368.70" waitingTime="0.00" waitingCount="0" stopTime="0.00" timeLoss="4.82" rerouteNo="0" devices="tripinfo_flow9.3" vType="vtypeauto" speedFactor="0.90" vaporized=""/>
    <tripinfo id="flow9.0" depart="0.00" departLane="A2B2_0" departPos="4.10" departSpeed="0.00" departDelay="0.00" arrival="43.90" arrivalLane="D2E2_0" arrivalPos="72.80" arrivalSpeed="11.84" duration="43.90" routeLength="368.70" waitingTime="6.00" waitingCount="1" stopTime="0.00" timeLoss="12.84" rerouteNo="0" devices="tripinfo_flow9.0" vType="vtypeauto" speedFactor="0.86" vaporized=""/>
    <tripinfo id="flow9.2" depart="5.50" departLane="A2B2_0" departPos="4.10" departSpeed="0.00" departDelay="3.50" arrival="45.40" arrivalLane="D2E2_0" arrivalPos="72.80" arrivalSpeed="12.82" duration="39.90" routeLength="368.70" waitingTime="0.00" waitingCount="0" stopTime="0.00" timeLoss="11.40" rerouteNo="0" devices="tripinfo_flow9.2" vType="vtypeauto" speedFactor="0.93" vaporized=""/>
    <tripinfo id="flow9.4" depart="11.10" departLane="A2B2_0" departPos="4.10" departSpeed="0.00" departDelay="7.10" arrival="46.00" arrivalLane="D2E2_1" arrivalPos="72.80" arrivalSpeed="11.69" duration="34.90" routeLength="368.70" waitingTime="0.00" waitingCount="0" stopTime="0.00" timeLoss="3.63" rerouteNo="0" devices="tripinfo_flow9.4" vType="vtypeauto" speedFactor="0.85" vaporized=""/>
    <tripinfo id="flow9.5" depart="13.90" departLane="A2B2_0" departPos="4.10" departSpeed="0.00" departDelay="8.90" arrival="47.00" arrivalLane="D2E2_0" arrivalPos="72.80" arrivalSpeed="13.38" duration="33.10" routeLength="368.70" waitingTime="0.00" waitingCount="0" stopTime="0.00" timeLoss="5.65" rerouteNo="0" devices="tripinfo_flow9.5" vType="vtypeauto" speedFactor="0.97" vaporized=""/>
    <tripinfo id="flow9.6" depart="16.70" departLane="A2B2_0" departPos="4.10" departSpeed="0.00" departDelay="10.70" arrival="48.50" arrivalLane="D2E2_0" arrivalPos="72.80" arrivalSpeed="14.15" duration="31.80" routeLength="368.70" waitingTime="0.00" waitingCount="0" stopTime="0.00" timeLoss="5.76" rerouteNo="0" devices="tripinfo_flow9.6" vType="vtypeauto" speedFactor="1.02" vaporized=""/>
    <tripinfo id="flow9.7" depart="19.40" departLane="A2B2_0" departPos="4.10" departSpeed="0.00" departDelay="12.40" arrival="49.90" arrivalLane="D2E2_0" arrivalPos="72.80" arrivalSpeed="15.04" duration="30.50" routeLength="368.70" waitingTime="0.00" waitingCount="0" stopTime="0.00" timeLoss="6.06" rerouteNo="0" devices="tripinfo_flow9.7" vType="vtypeauto" speedFactor="1.09" vaporized=""/>
    <tripinfo id="flow9.8" depart="22.10" departLane="A2B2_0" departPos="4.10" departSpeed="0.00" departDelay="14.10" arrival="51.80" arrivalLane="D2E2_0" arrivalPos="72.80" arrivalSpeed="14.09" duration="29.70" routeLength="368.70" waitingTime="0.00" waitingCount="0" stopTime="0.00" timeLoss="3.71" rerouteNo="0" devices="tripinfo_flow9.8" vType="vtypeauto" speedFactor="1.02" vaporized=""/>
    <tripinfo id="flow9.9" depart="24.90" departLane="A2B2_0" departPos="4.10" departSpeed="0.00" departDelay="15.90" arrival="53.30" arrivalLane="D2E2_0" arrivalPos="72.80" arrivalSpeed="15.21" duration="28.40" routeLength="368.70" waitingTime="0.00" waitingCount="0" stopTime="0.00" timeLoss="4.19" rerouteNo="0" devices="tripinfo_flow9.9" vType="vtypeauto" speedFactor="1.10" vaporized=""/>
    <tripinfo id="flow6.0" depart="0.00" departLane="D4D3_0" departPos="4.10" departSpeed="0.00" departDelay="0.00" arrival="70.70" arrivalLane="D1D0_0" arrivalPos="72.80" arrivalSpeed="14.48" duration="70.70" routeLength="368.70" waitingTime="31.20" waitingCount="2" stopTime="0.00" timeLoss="45.27" rerouteNo="0" devices="tripinfo_flow6.0" vType="vtypeauto" speedFactor="1.05" vaporized=""/>
    <tripinfo id="flow6.2" depart="11.20" departLane="D4D3_0" departPos="4.10" departSpeed="0.00" departDelay="9.20" arrival="71.00" arrivalLane="D1D0_2" arrivalPos="72.80" arrivalSpeed="12.71" duration="59.80" routeLength="368.70" waitingTime="22.40" waitingCount="1" stopTime="0.00" timeLoss="30.85" rerouteNo="0" devices="tripinfo_flow6.2" vType="vtypeauto" speedFactor="0.92" vaporized=""/>
    <tripinfo id="flow6.1" depart="5.60" departLane="D4D3_0" departPos="4.10" departSpeed="0.00" departDelay="4.60" arrival="71.60" arrivalLane="D1D0_0" arrivalPos="72.80" arrivalSpeed="12.12" duration="66.00" routeLength="368.70" waitingTime="24.70" waitingCount="2" stopTime="0.00" timeLoss="35.72" rerouteNo="0" devices="tripinfo_flow6.1" vType="vtypeauto" speedFactor="0.88" vaporized=""/>
    <tripinfo id="flow6.4" depart="22.50" departLane="D4D3_0" departPos="4.10" departSpeed="0.00" departDelay="18.50" arrival="72.60" arrivalLane="D1D0_2" arrivalPos="72.80" arrivalSpeed="13.84" duration="50.10" routeLength="368.70" waitingTime="9.50" waitingCount="1" stopTime="0.00" timeLoss="23.41" rerouteNo="0" devices="tripinfo_flow6.4" vType="vtypeauto" speedFactor="1.00" vaporized=""/>
    <tripinfo id="flow6.3" depart="16.90" departLane="D4D3_0" departPos="4.10" departSpeed="0.00" departDelay="13.90" arrival="73.00" arrivalLane="D1D0_1" arrivalPos="72.80" arrivalSpeed="13.40" duration="56.10" routeLength="368.70" waitingTime="15.20" waitingCount="1" stopTime="0.00" timeLoss="28.82" rerouteNo="0" devices="tripinfo_flow6.3" vType="vtypeauto" speedFactor="0.97" vaporized=""/>
    <tripinfo id="flow6.6" depart="33.70" departLane="D4D3_0" departPos="4.10" departSpeed="0.00" departDelay="27.70" arrival="74.40" arrivalLane="D1D0_2" arrivalPos="72.80" arrivalSpeed="12.55" duration="40.70" routeLength="368.70" waitingTime="0.00" waitingCount="0" stopTime="0.00" timeLoss="11.36" rerouteNo="0" devices="tripinfo_flow6.6" vType="vtypeauto" speedFactor="0.91" vaporized=""/>
    <tripinfo id="flow6.5" depart="28.00" departLane="D4D3_0" departPos="4.10" departSpeed="0.00" departDelay="23.00" arrival="74.80" arrivalLane="D1D0_1" arrivalPos="72.80" arrivalSpeed="12.40" duration="46.80" routeLength="368.70" waitingTime="4.50" waitingCount="1" stopTime="0.00" timeLoss="17.26" rerouteNo="0" devices="tripinfo_flow6.5" vType="vtypeauto" speedFactor="0.90" vaporized=""/>
    <tripinfo id="flow4.0" depart="0.40" departLane="C0C1_0" departPos="4.10" departSpeed="0.00" departDelay="0.40" arrival="75.60" arrivalLane="C3C4_0" arrivalPos="72.80" arrivalSpeed="14.25" duration="75.20" routeLength="368.70" waitingTime="32.40" waitingCount="3" stopTime="0.00" timeLoss="49.38" rerouteNo="0" devices="tripinfo_flow4.0" vType="vtypeauto" speedFactor="1.03" vaporized=""/>
    <tripinfo id="flow4.1" depart="3.30" departLane="C0C1_0" departPos="4.10" departSpeed="0.00" departDelay="2.30" arrival="75.80" arrivalLane="C3C4_0" arrivalPos="72.80" arrivalSpeed="13.75" duration="72.50" routeLength="368.70" waitingTime="28.90" waitingCount="3" stopTime="0.00" timeLoss="45.70" rerouteNo="0" devices="tripinfo_flow4.1" vType="vtypeauto" speedFactor="0.99" vaporized=""/>
    <tripinfo id="flow4.3" depart="9.00" departLane="C0C1_0" departPos="4.10" departSpeed="0.00" departDelay="6.00" arrival="75.80" arrivalLane="C3C4_2" arrivalPos="72.80" arrivalSpeed="13.75" duration="66.80" routeLength="368.70" waitingTime="24.50" waitingCount="2" stopTime="0.00" timeLoss="40.06" rerouteNo="0" devices="tripinfo_flow4.3" vType="vtypeauto" speedFactor="0.99" vaporized=""/>
    <tripinfo id="flow6.7" depart="39.20" departLane="D4D3_0" departPos="4.10" departSpeed="0.00" departDelay="32.20" arrival="76.30" arrivalLane="D1D0_1" arrivalPos="72.80" arrivalSpeed="14.31" duration="37.10" routeLength="368.70" waitingTime="0.00" waitingCount="0" stopTime="0.00" timeLoss="11.37" rerouteNo="0" devices="tripinfo_flow6.7" vType="vtypeauto" speedFactor="1.03" vaporized=""/>
    <tripinfo id="flow4.5" depart="14.70" departLane="C0C1_0" departPos="4.10" departSpeed="0.00" departDelay="9.70" arrival="77.30" arrivalLane="C3C4_1" arrivalPos="72.80" arrivalSpeed="13.93" duration="62.60" routeLength="368.70" waitingTime="14.80" waitingCount="2" stopTime="0.00" timeLoss="36.14" rerouteNo="0" devices="tripinfo_flow4.5" vType="vtypeauto" speedFactor="1.00" vaporized=""/>
    <tripinfo id="flow6.8" depart="44.80" departLane="D4D3_0" departPos="4.10" departSpeed="0.00" departDelay="36.80" arrival="77.90" arrivalLane="D1D0_1" arrivalPos="72.80" arrivalSpeed="13.88" duration="33.10" routeLength="368.70" waitingTime="0.00" waitingCount="0" stopTime="0.00" timeLoss="6.51" rerouteNo="0" devices="tripinfo_flow6.8" vType="vtypeauto" speedFactor="1.00" vaporized=""/>
    <tripinfo id="flow4.2" depart="6.10" departLane="C0C1_0" departPos="4.10" departSpeed="0.00" departDelay="4.10" arrival="78.10" arrivalLane="C3C4_0" arrivalPos="72.80" arrivalSpeed="11.45" duration="72.00" routeLength="368.70" waitingTime="16.40" waitingCount="2" stopTime="0.00" timeLoss="39.84" rerouteNo="0" devices="tripinfo_flow4.2" vType="vtypeauto" speedFactor="0.83" vaporized=""/>
    <tripinfo id="flow1.3" depart="8.40" departLane="A3B3_0" departPos="4.10" departSpeed="0.00" departDelay="5.40" arrival="79.30" arrivalLane="D3E3_2" arrivalPos="72.80" arrivalSpeed="15.97" duration="70.90" routeLength="368.70" waitingTime="36.50" waitingCount="1" stopTime="0.00" timeLoss="47.82" rerouteNo="0" devices="tripinfo_flow1.3" vType="vtypeauto" speedFactor="1.15" vaporized=""/>
    <tripinfo id="flow1.1" depart="2.80" departLane="A3B3_0" departPos="4.10" departSpeed="0.00" departDelay="1.80" arrival="80.30" arrivalLane="D3E3_1" arrivalPos="72.80" arrivalSpeed="14.17" duration="77.50" routeLength="368.70" waitingTime="37.90" waitingCount="2" stopTime="0.00" timeLoss="51.56" rerouteNo="0" devices="tripinfo_flow1.1" vType="vtypeauto" speedFactor="1.03" vaporized=""/>
    <tripinfo id="flow1.0" depart="0.00" departLane="A3B3_0" departPos="4.10" departSpeed="0.00" departDelay="0.00" arrival="80.50" arrivalLane="D3E3_0" arrivalPos="72.80" arrivalSpeed="12.91" duration="80.50" routeLength="368.70" waitingTime="40.20" waitingCount="2" stopTime="0.00" timeLoss="52.21" rerouteNo="0" devices="tripinfo_flow1.0" vType="vtypeauto" speedFactor="0.94" vaporized=""/>
    <tripinfo id="flow6.9" depart="50.30" departLane="D4D3_0" departPos="4.10" departSpeed="0.00" departDelay="41.30" arrival="80.70" arrivalLane="D1D0_1" arrivalPos="72.80" arrivalSpeed="13.91" duration="30.40" routeLength="368.70" waitingTime="0.00" waitingCount="0" stopTime="0.00" timeLoss="4.03" rerouteNo="0" devices="tripinfo_flow6.9" vType="vtypeauto" speedFactor="1.01" vaporized=""/>
    <tripinfo id="flow1.4" depart="11.20" departLane="A3B3_0" departPos="4.10" departSpeed="0.00" departDelay="7.20" arrival="81.40" arrivalLane="D3E3_2" arrivalPos="72.80" arrivalSpeed="13.18" duration="70.20" routeLength="368.70" waitingTime="29.80" waitingCount="1" stopTime="0.00" timeLoss="42.38" rerouteNo="0" devices="tripinfo_flow1.4" vType="vtypeauto" speedFactor="0.96" vaporized=""/>
    <tripinfo id="flow1.5" depart="13.90" departLane="A3B3_0" departPos="4.10" departSpeed="0.00" departDelay="8.90" arrival="81.40" arrivalLane="D3E3_1" arrivalPos="72.80" arrivalSpeed="13.92" duration="67.50" routeLength="368.70" waitingTime="28.90" waitingCount="1" stopTime="0.00" timeLoss="43.68" rerouteNo="0" devices="tripinfo_flow1.5" vType="vtypeauto@flow1.5" speedFactor="1.01" vaporized=""/>
    <tripinfo id="flow1.2" depart="5.60" departLane="A3B3_0" departPos="4.10" departSpeed="0.00" departDelay="3.60" arrival="81.60" arrivalLane="D3E3_0" arrivalPos="72.80" arrivalSpeed="13.74" duration="76.00" routeLength="368.70" waitingTime="29.00" waitingCount="1" stopTime="0.00" timeLoss="49.70" rerouteNo="0" devices="tripinfo_flow1.2" vType="vtypeauto@flow1.2" speedFactor="1.01" vaporized=""/>
    <tripinfo id="flow1.7" depart="19.40" departLane="A3B3_0" departPos="4.10" departSpeed="0.00" departDelay="12.40" arrival="82.50" arrivalLane="D3E3_1" arrivalPos="72.80" arrivalSpeed="13.95" duration="63.10" routeLength="368.70" waitingTime="22.70" waitingCount="1" stopTime="0.00" timeLoss="36.09" rerouteNo="0" devices="tripinfo_flow1.7" vType="vtypeauto@flow1.7" speedFactor="1.01" vaporized=""/>
    <tripinfo id="flow1.6" depart="16.60" departLane="A3B3_0" departPos="4.10" departSpeed="0.00" departDelay="10.60" arrival="82.80" arrivalLane="D3E3_0" arrivalPos="72.80" arrivalSpeed="13.90" duration="66.20" routeLength="368.70" waitingTime="26.70" waitingCount="1" stopTime="0.00" timeLoss="41.58" rerouteNo="0" devices="tripinfo_flow1.6" vType="vtypeauto@flow1.6" speedFactor="1.01" vaporized=""/>
    <tripinfo id="flow1.12" depart="33.40" departLane="A3B3_0" departPos="4.10" departSpeed="0.00" departDelay="21.40" arrival="82.80" arrivalLane="D3E3_2" arrivalPos="72.80" arrivalSpeed="15.25" duration="49.40" routeLength="368.70" waitingTime="5.30" waitingCount="2" stopTime="0.00" timeLoss="25.31" rerouteNo="0" devices="tripinfo_flow1.12" vType="vtypeauto" speedFactor="1.10" vaporized=""/>
    <tripinfo id="flow1.10" depart="27.80" departLane="A3B3_0" departPos="4.10" departSpeed="0.00" departDelay="17.80" arrival="83.70" arrivalLane="D3E3_1" arrivalPos="72.80" arrivalSpeed="13.96" duration="55.90" routeLength="368.70" waitingTime="10.30" waitingCount="2" stopTime="0.00" timeLoss="28.54" rerouteNo="0" devices="tripinfo_flow1.10" vType="vtypeauto@flow1.10" speedFactor="1.01" vaporized=""/>
    <tripinfo id="flow1.8" depart="22.20" departLane="A3B3_0" departPos="4.10" departSpeed="0.00" departDelay="14.20" arrival="83.90" arrivalLane="D3E3_0" arrivalPos="72.80" arrivalSpeed="13.96" duration="61.70" routeLength="368.70" waitingTime="21.30" waitingCount="1" stopTime="0.00" timeLoss="35.11" rerouteNo="0" devices="tripinfo_flow1.8" vType="vtypeauto@flow1.8" speedFactor="1.01" vaporized=""/>
    <tripinfo id="flow1.13" depart="36.20" departLane="A3B3_0" departPos="4.10" departSpeed="0.00" departDelay="23.20" arrival="84.30" arrivalLane="D3E3_2" arrivalPos="72.80" arrivalSpeed="14.77" duration="48.10" routeLength="368.70" waitingTime="2.70" waitingCount="1" stopTime="0.00" timeLoss="23.18" rerouteNo="0" devices="tripinfo_flow1.13" vType="vtypeauto" speedFactor="1.07" vaporized=""/>
    <tripinfo id="flow1.15" depart="41.70" departLane="A3B3_0" departPos="4.10" departSpeed="0.00" departDelay="26.70" arrival="84.80" arrivalLane="D3E3_1" arrivalPos="72.80" arrivalSpeed="13.98" duration="43.10" routeLength="368.70" waitingTime="1.20" waitingCount="1" stopTime="0.00" timeLoss="16.67" rerouteNo="0" devices="tripinfo_flow1.15" vType="vtypeauto@flow1.15" speedFactor="1.01" vaporized=""/>
    <tripinfo id="flow1.9" depart="25.00" departLane="A3B3_0" departPos="4.10" departSpeed="0.00" departDelay="16.00" arrival="85.00" arrivalLane="D3E3_0" arrivalPos="72.80" arrivalSpeed="13.94" duration="60.00" routeLength="368.70" waitingTime="13.80" waitingCount="2" stopTime="0.00" timeLoss="31.41" rerouteNo="0" devices="tripinfo_flow1.9" vType="vtypeauto@flow1.9" speedFactor="1.01" vaporized=""/>
    <tripinfo id="flow1.16" depart="44.50" departLane="A3B3_0" departPos="4.10" departSpeed="0.00" departDelay="28.50" arrival="85.70" arrivalLane="D3E3_2" arrivalPos="72.80" arrivalSpeed="14.90" duration="41.20" routeLength="368.70" waitingTime="0.00" waitingCount="0" stopTime="0.00" timeLoss="16.56" rerouteNo="0" devices="tripinfo_flow1.16" vType="vtypeauto" speedFactor="1.08" vaporized=""/>
    <tripinfo id="flow1.11" depart="30.60" departLane="A3B3_0" departPos="4.10" departSpeed="0.00" departDelay="19.60" arrival="86.10" arrivalLane="D3E3_0" arrivalPos="72.80" arrivalSpeed="13.96" duration="55.50" routeLength="368.70" waitingTime="3.30" waitingCount="1" stopTime="0.00" timeLoss="26.46" rerouteNo="0" devices="tripinfo_flow1.11" vType="vtypeauto@flow1.11" speedFactor="1.01" vaporized=""/>
    <tripinfo id="flow1.14" depart="38.90" departLane="A3B3_0" departPos="4.10" departSpeed="0.00" departDelay="24.90" arrival="86.20" arrivalLane="D3E3_1" arrivalPos="72.80" arrivalSpeed="16.00" duration="47.30" routeLength="368.70" waitingTime="0.00" waitingCount="0" stopTime="0.00" timeLoss="24.44" rerouteNo="0" devices="tripinfo_flow1.14" vType="vtypeauto" speedFactor="1.16" vaporized=""/>
    <tripinfo id="flow9.11" depart="30.50" departLane="A2B2_0" departPos="4.10" departSpeed="0.00" departDelay="19.50" arrival="87.50" arrivalLane="D2E2_1" arrivalPos="72.80" arrivalSpeed="14.75" duration="57.00" routeLength="368.70" waitingTime="18.60" waitingCount="2" stopTime="0.00" timeLoss="32.14" rerouteNo="0" devices="tripinfo_flow9.11" vType="vtypeauto" speedFactor="1.07" vaporized=""/>
    <tripinfo id="flow9.10" depart="27.70" departLane="A2B2_0" departPos="4.10" departSpeed="0.00" departDelay="17.70" arrival="87.90" arrivalLane="D2E2_0" arrivalPos="72.80" arrivalSpeed="13.31" duration="60.20" routeLength="368.70" waitingTime="20.60" waitingCount="2" stopTime="0.00" timeLoss="32.51" rerouteNo="0" devices="tripinfo_flow9.10" vType="vtypeauto" speedFactor="0.96" vaporized=""/>
    <tripinfo id="flow9.13" depart="36.00" departLane="A2B2_0" departPos="4.10" departSpeed="0.00" departDelay="23.00" arrival="87.90" arrivalLane="D2E2_2" arrivalPos="72.80" arrivalSpeed="13.22" duration="51.90" routeLength="368.70" waitingTime="14.40" waitingCount="1" stopTime="0.00" timeLoss="24.01" rerouteNo="0" devices="tripinfo_flow9.13" vType="vtypeauto" speedFactor="0.95" vaporized=""/>
    <tripinfo id="flow6.10" depart="55.90" departLane="D4D3_0" departPos="4.10" departSpeed="0.00" departDelay="45.90" arrival="88.20" arrivalLane="D1D0_1" arrivalPos="72.80" arrivalSpeed="14.08" duration="32.30" routeLength="368.70" waitingTime="0.00" waitingCount="0" stopTime="0.00" timeLoss="6.12" rerouteNo="0" devices="tripinfo_flow6.10" vType="vtypeauto" speedFactor="1.01" vaporized=""/>
    <tripinfo id="flow4.4" depart="11.80" departLane="C0C1_0" departPos="4.10" departSpeed="0.00" departDelay="7.80" arrival="88.60" arrivalLane="C3C4_0" arrivalPos="72.80" arrivalSpeed="14.47" duration="76.80" routeLength="368.70" waitingTime="31.00" waitingCount="2" stopTime="0.00" timeLoss="51.34" rerouteNo="0" devices="tripinfo_flow4.4" vType="vtypeauto" speedFactor="1.04" vaporized=""/>
    <tripinfo id="flow9.15" depart="41.50" departLane="A2B2_0" departPos="4.10" departSpeed="0.00" departDelay="26.50" arrival="88.90" arrivalLane="D2E2_1" arrivalPos="72.80" arrivalSpeed="15.85" duration="47.40" routeLength="368.70" waitingTime="8.30" waitingCount="1" stopTime="0.00" timeLoss="24.10" rerouteNo="0" devices="tripinfo_flow9.15" vType="vtypeauto" speedFactor="1.14" vaporized=""/>
    <tripinfo id="flow9.12" depart="33.30" departLane="A2B2_0" departPos="4.10" departSpeed="0.00" departDelay="21.30" arrival="89.40" arrivalLane="D2E2_0" arrivalPos="72.80" arrivalSpeed="13.91" duration="56.10" routeLength="368.70" waitingTime="8.40" waitingCount="2" stopTime="0.00" timeLoss="29.77" rerouteNo="0" devices="tripinfo_flow9.12" vType="vtypeauto" speedFactor="1.01" vaporized=""/>
    <tripinfo id="flow9.14" depart="38.80" departLane="A2B2_0" departPos="4.10" departSpeed="0.00" departDelay="24.80" arrival="89.40" arrivalLane="D2E2_2" arrivalPos="72.80" arrivalSpeed="14.43" duration="50.60" routeLength="368.70" waitingTime="10.00" waitingCount="1" stopTime="0.00" timeLoss="25.02" rerouteNo="0" devices="tripinfo_flow9.14" vType="vtypeauto" speedFactor="1.04" vaporized=""/>
    <tripinfo id="flow9.17" depart="47.10" departLane="A2B2_0" departPos="4.10" departSpeed="0.00" departDelay="30.10" arrival="90.40" arrivalLane="D2E2_1" arrivalPos="72.80" arrivalSpeed="14.73" duration="43.30" routeLength="368.70" waitingTime="3.70" waitingCount="1" stopTime="0.00" timeLoss="18.34" rerouteNo="0" devices="tripinfo_flow9.17" vType="vtypeauto" speedFactor="1.06" vaporized=""/>
    <tripinfo id="flow9.16" depart="44.30" departLane="A2B2_0" departPos="4.10" departSpeed="0.00" departDelay="28.30" arrival="91.10" arrivalLane="D2E2_0" arrivalPos="72.80" arrivalSpeed="13.01" duration="46.80" routeLength="368.70" waitingTime="5.70" waitingCount="1" stopTime="0.00" timeLoss="18.52" rerouteNo="0" devices="tripinfo_flow9.16" vType="vtypeauto" speedFactor="0.94" vaporized=""/>
    <tripinfo id="flow9.18" depart="49.90" departLane="A2B2_0" departPos="4.10" departSpeed="0.00" departDelay="31.90" arrival="92.60" arrivalLane="D2E2_0" arrivalPos="72.80" arrivalSpeed="13.42" duration="42.70" routeLength="368.70" waitingTime="2.10" waitingCount="1" stopTime="0.00" timeLoss="15.36" rerouteNo="0" devices="tripinfo_flow9.18" vType="vtypeauto" speedFactor="0.97" vaporized=""/>
    <tripinfo id="flow9.23" depart="63.60" departLane="A2B2_0" departPos="4.10" departSpeed="0.00" departDelay="40.60" arrival="120.10" arrivalLane="D2E2_1" arrivalPos="72.80" arrivalSpeed="15.64" duration="56.50" routeLength="368.70" waitingTime="19.40" waitingCount="1" stopTime="0.00" timeLoss="32.89" rerouteNo="0" devices="tripinfo_flow9.23" vType="vtypeauto" speedFactor="1.13" vaporized=""/>
    <tripinfo id="flow9.20" depart="55.30" departLane="A2B2_0" departPos="4.10" departSpeed="0.00" departDelay="35.30" arrival="120.50" arrivalLane="D2E2_0" arrivalPos="72.80" arrivalSpeed="13.66" duration="65.20" routeLength="368.70" waitingTime="30.10" waitingCount="1" stopTime="0.00" timeLoss="38.23" rerouteNo="0" devices="tripinfo_flow9.20" vType="vtypeauto" speedFactor="0.98" vaporized=""/>
    <tripinfo id="flow9.26" depart="71.90" departLane="A2B2_0" departPos="4.10" departSpeed="0.00" departDelay="45.90" arrival="121.50" arrivalLane="D2E2_1" arrivalPos="72.80" arrivalSpeed="17.49" duration="49.60" routeLength="368.70" waitingTime="12.30" waitingCount="1" stopTime="0.00" timeLoss="28.52" rerouteNo="0" devices="tripinfo_flow9.26" vType="vtypeauto" speedFactor="1.26" vaporized=""/>
    <tripinfo id="flow9.29" depart="80.20" departLane="A2B2_0" departPos="4.10" departSpeed="0.00" departDelay="51.20" arrival="123.10" arrivalLane="D2E2_1" arrivalPos="72.80" arrivalSpeed="15.99" duration="42.90" routeLength="368.70" waitingTime="5.20" waitingCount="1" stopTime="0.00" timeLoss="19.87" rerouteNo="0" devices="tripinfo_flow9.29" vType="vtypeauto" speedFactor="1.16" vaporized=""/>
    <tripinfo id="flow0.7" depart="12.30" departLane="B4B3_0" departPos="4.10" departSpeed="0.00" departDelay="5.30" arrival="124.30" arrivalLane="B3A3_2" arrivalPos="72.80" arrivalSpeed="14.20" duration="112.00" routeLength="560.63" waitingTime="46.50" waitingCount="3" stopTime="0.00" timeLoss="70.78" rerouteNo="0" devices="tripinfo_flow0.7" vType="vtypeauto" speedFactor="1.02" vaporized=""/>
    <tripinfo id="flow9.19" depart="52.60" departLane="A2B2_0" departPos="4.10" departSpeed="0.00" departDelay="33.60" arrival="124.90" arrivalLane="D2E2_0" arrivalPos="72.80" arrivalSpeed="11.45" duration="72.30" routeLength="368.70" waitingTime="33.70" waitingCount="1" stopTime="0.00" timeLoss="40.18" rerouteNo="0" devices="tripinfo_flow9.19" vType="vtypeauto" speedFactor="0.83" vaporized=""/>
    <tripinfo id="flow0.0" depart="0.00" departLane="B4B3_0" departPos="4.10" departSpeed="0.00" departDelay="0.00" arrival="125.90" arrivalLane="B3A3_2" arrivalPos="72.80" arrivalSpeed="14.71" duration="125.90" routeLength="560.63" waitingTime="56.50" waitingCount="3" stopTime="0.00" timeLoss="86.03" rerouteNo="0" devices="tripinfo_flow0.0" vType="vtypeauto" speedFactor="1.06" vaporized=""/>
    <tripinfo id="flow9.21" depart="58.00" departLane="A2B2_0" departPos="4.10" departSpeed="0.00" departDelay="37.00" arrival="126.40" arrivalLane="D2E2_0" arrivalPos="72.80" arrivalSpeed="13.94" duration="68.40" routeLength="368.70" waitingTime="25.60" waitingCount="1" stopTime="0.00" timeLoss="41.59" rerouteNo="0" devices="tripinfo_flow9.21" vType="vtypeauto@flow9.21" speedFactor="1.01" vaporized=""/>
    <tripinfo id="flow9.22" depart="60.80" departLane="A2B2_0" departPos="4.10" departSpeed="0.00" departDelay="38.80" arrival="126.80" arrivalLane="D2E2_2" arrivalPos="72.80" arrivalSpeed="13.78" duration="66.00" routeLength="368.70" waitingTime="27.40" waitingCount="1" stopTime="0.00" timeLoss="39.27" rerouteNo="0" devices="tripinfo_flow9.22" vType="vtypeauto" speedFactor="0.99" vaporized=""/>
    <tripinfo id="flow9.24" depart="66.40" departLane="A2B2_0" departPos="4.10" departSpeed="0.00" departDelay="42.40" arrival="127.60" arrivalLane="D2E2_0" arrivalPos="72.80" arrivalSpeed="13.96" duration="61.20" routeLength="368.70" waitingTime="18.00" waitingCount="1" stopTime="0.00" timeLoss="35.17" rerouteNo="0" devices="tripinfo_flow9.24" vType="vtypeauto@flow9.24" speedFactor="1.01" vaporized=""/>
    <tripinfo id="flow9.32" depart="88.10" departLane="A2B2_0" departPos="4.10" departSpeed="0.00" departDelay="56.10" arrival="128.40" arrivalLane="D2E2_1" arrivalPos="72.80" arrivalSpeed="12.39" duration="40.30" routeLength="368.70" waitingTime="0.00" waitingCount="0" stopTime="0.00" timeLoss="10.73" rerouteNo="0" devices="tripinfo_flow9.32" vType="vtypeauto" speedFactor="0.90" vaporized=""/>
    <tripinfo id="flow9.27" depart="74.60" departLane="A2B2_0" departPos="4.10" departSpeed="0.00" departDelay="47.60" arrival="128.80" arrivalLane="D2E2_0" arrivalPos="72.80" arrivalSpeed="13.97" duration="54.20" routeLength="368.70" waitingTime="10.60" waitingCount="1" stopTime="0.00" timeLoss="27.71" rerouteNo="0" devices="tripinfo_flow9.27" vType="vtypeauto@flow9.27" speedFactor="1.01" vaporized=""/>
    <tripinfo id="flow0.8" depart="13.90" departLane="B4B3_0" departPos="4.10" departSpeed="0.00" departDelay="5.90" arrival="129.70" arrivalLane="B3A3_2" arrivalPos="72.80" arrivalSpeed="14.36" duration="115.80" routeLength="560.63" waitingTime="37.00" waitingCount="10" stopTime="0.00" timeLoss="75.00" rerouteNo="0" devices="tripinfo_flow0.8" vType="vtypeauto" speedFactor="1.03" vaporized=""/>
    <tripinfo id="flow9.36" depart="98.20" departLane="A2B2_0" departPos="4.10" departSpeed="0.00" departDelay="62.20" arrival="129.90" arrivalLane="D2E2_1" arrivalPos="72.80" arrivalSpeed="14.08" duration="31.70" routeLength="368.70" waitingTime="0.00" waitingCount="0" stopTime="0.00" timeLoss="5.54" rerouteNo="0" devices="tripinfo_flow9.36" vType="vtypeauto" speedFactor="1.02" vaporized=""/>
    <tripinfo id="flow9.30" depart="82.90" departLane="A2B2_0" departPos="4.10" departSpeed="0.00" departDelay="52.90" arrival="130.00" arrivalLane="D2E2_0" arrivalPos="72.80" arrivalSpeed="13.94" duration="47.10" routeLength="368.70" waitingTime="3.20" waitingCount="1" stopTime="0.00" timeLoss="20.87" rerouteNo="0" devices="tripinfo_flow9.30" vType="vtypeauto@flow9.30" speedFactor="1.01" vaporized=""/>
    <tripinfo id="flow8.0" depart="2.80" departLane="D4D3_0" departPos="4.10" departSpeed="0.00" departDelay="2.80" arrival="130.80" arrivalLane="B1A1_1" arrivalPos="72.80" arrivalSpeed="13.98" duration="128.00" routeLength="550.53" waitingTime="60.00" waitingCount="3" stopTime="0.00" timeLoss="87.15" rerouteNo="0" devices="tripinfo_flow8.0" vType="vtypeauto@flow8.0" speedFactor="1.01" vaporized=""/>
    <tripinfo id="flow8.1" depart="8.40" departLane="D4D3_0" departPos="4.10" departSpeed="0.00" departDelay="7.40" arrival="131.00" arrivalLane="B1A1_2" arrivalPos="72.80" arrivalSpeed="13.88" duration="122.60" routeLength="550.53" waitingTime="55.00" waitingCount="2" stopTime="0.00" timeLoss="81.62" rerouteNo="0" devices="tripinfo_flow8.1" vType="vtypeauto@flow8.1" speedFactor="1.01" vaporized=""/>
    <tripinfo id="flow9.25" depart="69.20" departLane="A2B2_0" departPos="4.10" departSpeed="0.00" departDelay="44.20" arrival="131.10" arrivalLane="D2E2_2" arrivalPos="72.80" arrivalSpeed="11.58" duration="61.90" routeLength="368.70" waitingTime="16.40" waitingCount="1" stopTime="0.00" timeLoss="30.07" rerouteNo="0" devices="tripinfo_flow9.25" vType="vtypeauto" speedFactor="0.84" vaporized=""/>
    <tripinfo id="flow0.10" depart="18.90" departLane="B4B3_0" departPos="4.10" departSpeed="0.00" departDelay="8.90" arrival="131.30" arrivalLane="B3A3_2" arrivalPos="72.80" arrivalSpeed="14.74" duration="112.40" routeLength="560.63" waitingTime="27.60" waitingCount="7" stopTime="0.00" timeLoss="72.76" rerouteNo="0" devices="tripinfo_flow0.10" vType="vtypeauto" speedFactor="1.06" vaporized=""/>