<?xml version="1.0" encoding="UTF-8"?>

<!-- generated on 2024-10-29 12:54:43 by Eclipse SUMO sumo Version 1.20.0
<configuration xmlns:xsi="http://www.w3.org/2001/XMLSchema-instance" xsi:noNamespaceSchemaLocation="http://sumo.dlr.de/xsd/sumoConfiguration.xsd">

    <input>
        <net-file value="./sim_cfg_grid_3_lanes/grid.net.xml"/>
        <route-files value="./sim_cfg_grid_3_lanes/7x0.16.rou.xml"/>
    </input>

    <output>
        <tripinfo-output value="./sim_cfg_grid_3_lanes/tripinfo-platooning_0.115.xml"/>
    </output>

    <time>
        <begin value="0"/>
        <end value="500"/>
        <step-length value="0.1"/>
    </time>

    <traci_server>
        <remote-port value="49631"/>
    </traci_server>

    <gui_only>
        <gui-settings-file value="./sim_cfg_grid_3_lanes/gui_settings.xml"/>
    </gui_only>

</configuration>
-->

<tripinfos xmlns:xsi="http://www.w3.org/2001/XMLSchema-instance" xsi:noNamespaceSchemaLocation="http://sumo.dlr.de/xsd/tripinfo_file.xsd">
    <tripinfo id="flow5.0" depart="0.00" departLane="D4D3_0" departPos="4.10" departSpeed="0.00" departDelay="0.00" arrival="44.90" arrivalLane="D1D0_0" arrivalPos="72.80" arrivalSpeed="11.51" duration="44.90" routeLength="368.70" waitingTime="6.40" waitingCount="1" stopTime="0.00" timeLoss="12.96" rerouteNo="0" devices="tripinfo_flow5.0" vType="vtypeauto" speedFactor="0.83" vaporized=""/>
    <tripinfo id="flow5.1" depart="6.00" departLane="D4D3_0" departPos="4.10" departSpeed="0.00" departDelay="0.00" arrival="45.70" arrivalLane="D1D0_1" arrivalPos="72.80" arrivalSpeed="14.24" duration="39.70" routeLength="368.70" waitingTime="0.80" waitingCount="2" stopTime="0.00" timeLoss="13.75" rerouteNo="0" devices="tripinfo_flow5.1" vType="vtypeauto" speedFactor="1.03" vaporized=""/>
    <tripinfo id="flow5.2" depart="12.00" departLane="D4D3_0" departPos="4.10" departSpeed="0.00" departDelay="0.00" arrival="46.50" arrivalLane="D1D0_0" arrivalPos="72.80" arrivalSpeed="13.07" duration="34.50" routeLength="368.70" waitingTime="0.00" waitingCount="0" stopTime="0.00" timeLoss="6.26" rerouteNo="0" devices="tripinfo_flow5.2" vType="vtypeauto" speedFactor="0.94" vaporized=""/>
    <tripinfo id="flow1.0" depart="0.00" departLane="A3B3_0" departPos="4.10" departSpeed="0.00" departDelay="0.00" arrival="54.90" arrivalLane="D3E3_0" arrivalPos="72.80" arrivalSpeed="13.00" duration="54.90" routeLength="368.70" waitingTime="15.20" waitingCount="2" stopTime="0.00" timeLoss="26.59" rerouteNo="0" devices="tripinfo_flow1.0" vType="vtypeauto" speedFactor="0.94" vaporized=""/>
    <tripinfo id="flow1.1" depart="6.00" departLane="A3B3_0" departPos="4.10" departSpeed="0.00" departDelay="0.00" arrival="55.20" arrivalLane="D3E3_1" arrivalPos="72.80" arrivalSpeed="12.26" duration="49.20" routeLength="368.70" waitingTime="8.60" waitingCount="1" stopTime="0.00" timeLoss="19.22" rerouteNo="0" devices="tripinfo_flow1.1" vType="vtypeauto" speedFactor="0.89" vaporized=""/>
    <tripinfo id="flow1.2" depart="12.00" departLane="A3B3_0" departPos="4.10" departSpeed="0.00" departDelay="0.00" arrival="56.80" arrivalLane="D3E3_0" arrivalPos="72.80" arrivalSpeed="15.51" duration="44.80" routeLength="368.70" waitingTime="7.30" waitingCount="2" stopTime="0.00" timeLoss="21.11" rerouteNo="0" devices="tripinfo_flow1.2" vType="vtypeauto" speedFactor="1.12" vaporized=""/>
    <tripinfo id="flow1.3" depart="18.00" departLane="A3B3_0" departPos="4.10" departSpeed="0.00" departDelay="0.00" arrival="56.90" arrivalLane="D3E3_1" arrivalPos="72.80" arrivalSpeed="16.04" duration="38.90" routeLength="368.70" waitingTime="1.30" waitingCount="2" stopTime="0.00" timeLoss="15.91" rerouteNo="0" devices="tripinfo_flow1.3" vType="vtypeauto" speedFactor="1.16" vaporized=""/>
    <tripinfo id="flow1.4" depart="24.00" departLane="A3B3_0" departPos="4.10" departSpeed="0.00" departDelay="0.00" arrival="61.10" arrivalLane="D3E3_0" arrivalPos="72.80" arrivalSpeed="12.07" duration="37.10" routeLength="368.70" waitingTime="0.00" waitingCount="0" stopTime="0.00" timeLoss="6.63" rerouteNo="0" devices="tripinfo_flow1.4" vType="vtypeauto" speedFactor="0.87" vaporized=""/>
    <tripinfo id="flow5.5" depart="30.00" departLane="D4D3_0" departPos="4.10" departSpeed="0.00" departDelay="0.00" arrival="61.60" arrivalLane="D1D0_2" arrivalPos="72.80" arrivalSpeed="14.11" duration="31.60" routeLength="368.70" waitingTime="0.00" waitingCount="0" stopTime="0.00" timeLoss="5.52" rerouteNo="0" devices="tripinfo_flow5.5" vType="vtypeauto" speedFactor="1.02" vaporized=""/>
    <tripinfo id="flow2.0" depart="0.00" departLane="A0A1_0" departPos="4.10" departSpeed="0.00" departDelay="0.00" arrival="62.50" arrivalLane="C3D3_0" arrivalPos="72.80" arrivalSpeed="13.94" duration="62.50" routeLength="512.81" waitingTime="6.60" waitingCount="1" stopTime="0.00" timeLoss="22.53" rerouteNo="0" devices="tripinfo_flow2.0" vType="vtypeauto" speedFactor="1.01" vaporized=""/>
    <tripinfo id="flow5.4" depart="24.00" departLane="D4D3_0" departPos="4.10" departSpeed="0.00" departDelay="0.00" arrival="65.40" arrivalLane="D1D0_2" arrivalPos="72.80" arrivalSpeed="12.93" duration="41.40" routeLength="368.70" waitingTime="0.10" waitingCount="1" stopTime="0.00" timeLoss="12.90" rerouteNo="0" devices="tripinfo_flow5.4" vType="vtypeauto" speedFactor="0.93" vaporized=""/>
    <tripinfo id="flow2.1" depart="6.00" departLane="A0A1_0" departPos="4.10" departSpeed="0.00" departDelay="0.00" arrival="66.70" arrivalLane="C3D3_0" arrivalPos="72.80" arrivalSpeed="13.00" duration="60.70" routeLength="512.81" waitingTime="0.00" waitingCount="0" stopTime="0.00" timeLoss="17.73" rerouteNo="0" devices="tripinfo_flow2.1" vType="vtypeauto" speedFactor="0.94" vaporized=""/>
    <tripinfo id="flow4.0" depart="0.00" departLane="E2D2_0" departPos="4.10" departSpeed="0.00" departDelay="0.00" arrival="67.00" arrivalLane="B1A1_0" arrivalPos="72.80" arrivalSpeed="14.28" duration="67.00" routeLength="606.12" waitingTime="5.80" waitingCount="2" stopTime="0.00" timeLoss="20.75" rerouteNo="0" devices="tripinfo_flow4.0" vType="vtypeauto" speedFactor="1.03" vaporized=""/>
    <tripinfo id="flow5.3" depart="18.00" departLane="D4D3_0" departPos="4.10" departSpeed="0.00" departDelay="0.00" arrival="67.30" arrivalLane="D1D0_1" arrivalPos="72.80" arrivalSpeed="12.31" duration="49.30" routeLength="368.70" waitingTime="6.60" waitingCount="1" stopTime="0.00" timeLoss="19.41" rerouteNo="0" devices="tripinfo_flow5.3" vType="vtypeauto" speedFactor="0.89" vaporized=""/>
    <tripinfo id="flow2.2" depart="12.00" departLane="A0A1_0" departPos="4.10" departSpeed="0.00" departDelay="0.00" arrival="68.90" arrivalLane="C3D3_0" arrivalPos="72.80" arrivalSpeed="13.69" duration="56.90" routeLength="512.81" waitingTime="0.00" waitingCount="0" stopTime="0.00" timeLoss="16.23" rerouteNo="0" devices="tripinfo_flow2.2" vType="vtypeauto" speedFactor="0.99" vaporized=""/>
    <tripinfo id="flow4.1" depart="6.00" departLane="E2D2_0" departPos="4.10" departSpeed="0.00" departDelay="0.00" arrival="69.10" arrivalLane="B1A1_0" arrivalPos="72.80" arrivalSpeed="15.04" duration="63.10" routeLength="606.12" waitingTime="0.00" waitingCount="0" stopTime="0.00" timeLoss="19.41" rerouteNo="0" devices="tripinfo_flow4.1" vType="vtypeauto" speedFactor="1.09" vaporized=""/>
    <tripinfo id="flow0.0" depart="0.00" departLane="B4B3_0" departPos="4.10" departSpeed="0.00" departDelay="0.00" arrival="80.50" arrivalLane="B3A3_2" arrivalPos="72.80" arrivalSpeed="14.66" duration="80.50" routeLength="560.63" waitingTime="19.70" waitingCount="3" stopTime="0.00" timeLoss="40.70" rerouteNo="0" devices="tripinfo_flow0.0" vType="vtypeauto" speedFactor="1.06" vaporized=""/>
    <tripinfo id="flow0.1" depart="6.00" departLane="B4B3_0" departPos="4.10" departSpeed="0.00" departDelay="0.00" arrival="80.70" arrivalLane="B3A3_1" arrivalPos="72.80" arrivalSpeed="14.46" duration="74.70" routeLength="560.63" waitingTime="4.10" waitingCount="2" stopTime="0.00" timeLoss="34.27" rerouteNo="0" devices="tripinfo_flow0.1" vType="vtypeauto" speedFactor="1.05" vaporized=""/>
    <tripinfo id="flow1.5" depart="30.00" departLane="A3B3_0" departPos="4.10" departSpeed="0.00" departDelay="0.00" arrival="81.50" arrivalLane="D3E3_0" arrivalPos="72.80" arrivalSpeed="15.96" duration="51.50" routeLength="368.70" waitingTime="14.40" waitingCount="2" stopTime="0.00" timeLoss="28.45" rerouteNo="0" devices="tripinfo_flow1.5" vType="vtypeauto" speedFactor="1.15" vaporized=""/>
    <tripinfo id="flow1.6" depart="36.00" departLane="A3B3_0" departPos="4.10" departSpeed="0.00" departDelay="0.00" arrival="81.50" arrivalLane="D3E3_1" arrivalPos="72.80" arrivalSpeed="16.27" duration="45.50" routeLength="368.70" waitingTime="8.20" waitingCount="2" stopTime="0.00" timeLoss="22.99" rerouteNo="0" devices="tripinfo_flow1.6" vType="vtypeauto" speedFactor="1.18" vaporized=""/>
    <tripinfo id="flow1.8" depart="48.00" departLane="A3B3_0" departPos="4.10" departSpeed="0.00" departDelay="0.00" arrival="83.20" arrivalLane="D3E3_2" arrivalPos="72.80" arrivalSpeed="11.72" duration="35.20" routeLength="368.70" waitingTime="0.00" waitingCount="0" stopTime="0.00" timeLoss="3.94" rerouteNo="0" devices="tripinfo_flow1.8" vType="vtypeauto" speedFactor="0.85" vaporized=""/>
    <tripinfo id="flow1.7" depart="42.00" departLane="A3B3_0" departPos="4.10" departSpeed="0.00" departDelay="0.00" arrival="83.90" arrivalLane="D3E3_0" arrivalPos="72.80" arrivalSpeed="14.38" duration="41.90" routeLength="368.70" waitingTime="0.00" waitingCount="0" stopTime="0.00" timeLoss="16.29" rerouteNo="0" devices="tripinfo_flow1.7" vType="vtypeauto" speedFactor="1.04" vaporized=""/>
    <tripinfo id="flow2.3" depart="18.00" departLane="A0A1_0" departPos="4.10" departSpeed="0.00" departDelay="0.00" arrival="85.40" arrivalLane="C3D3_0" arrivalPos="72.80" arrivalSpeed="14.08" duration="67.40" routeLength="512.81" waitingTime="11.50" waitingCount="3" stopTime="0.00" timeLoss="27.84" rerouteNo="0" devices="tripinfo_flow2.3" vType="vtypeauto" speedFactor="1.02" vaporized=""/>
    <tripinfo id="flow2.4" depart="24.00" departLane="A0A1_0" departPos="4.10" departSpeed="0.00" departDelay="0.00" arrival="92.70" arrivalLane="C3D3_0" arrivalPos="72.80" arrivalSpeed="12.69" duration="68.70" routeLength="512.81" waitingTime="0.00" waitingCount="0" stopTime="0.00" timeLoss="24.69" rerouteNo="0" devices="tripinfo_flow2.4" vType="vtypeauto" speedFactor="0.92" vaporized=""/>
    <tripinfo id="flow2.5" depart="30.00" departLane="A0A1_0" departPos="4.10" departSpeed="0.00" departDelay="0.00" arrival="94.60" arrivalLane="C3D3_0" arrivalPos="72.80" arrivalSpeed="13.87" duration="64.60" routeLength="512.81" waitingTime="0.00" waitingCount="0" stopTime="0.00" timeLoss="24.45" rerouteNo="0" devices="tripinfo_flow2.5" vType="vtypeauto" speedFactor="1.01" vaporized=""/>
    <tripinfo id="flow2.6" depart="36.00" departLane="A0A1_0" departPos="4.10" departSpeed="0.00" departDelay="0.00" arrival="97.80" arrivalLane="C3D3_0" arrivalPos="72.80" arrivalSpeed="15.25" duration="61.80" routeLength="512.81" waitingTime="0.00" waitingCount="0" stopTime="0.00" timeLoss="25.30" rerouteNo="0" devices="tripinfo_flow2.6" vType="vtypeauto" speedFactor="1.10" vaporized=""/>
    <tripinfo id="flow0.2" depart="12.00" departLane="B4B3_0" departPos="4.10" departSpeed="0.00" departDelay="0.00" arrival="103.60" arrivalLane="B3A3_0" arrivalPos="72.80" arrivalSpeed="14.48" duration="91.60" routeLength="560.63" waitingTime="28.60" waitingCount="3" stopTime="0.00" timeLoss="51.33" rerouteNo="0" devices="tripinfo_flow0.2" vType="vtypeauto" speedFactor="1.05" vaporized=""/>
    <tripinfo id="flow2.7" depart="42.00" departLane="A0A1_0" departPos="4.10" departSpeed="0.00" departDelay="0.00" arrival="104.00" arrivalLane="C3D3_0" arrivalPos="72.80" arrivalSpeed="14.48" duration="62.00" routeLength="512.81" waitingTime="6.50" waitingCount="1" stopTime="0.00" timeLoss="23.33" rerouteNo="0" devices="tripinfo_flow2.7" vType="vtypeauto" speedFactor="1.04" vaporized=""/>
    <tripinfo id="flow0.3" depart="18.00" departLane="B4B3_0" departPos="4.10" departSpeed="0.00" departDelay="0.00" arrival="104.10" arrivalLane="B3A3_2" arrivalPos="72.80" arrivalSpeed="12.93" duration="86.10" routeLength="560.63" waitingTime="13.20" waitingCount="3" stopTime="0.00" timeLoss="41.10" rerouteNo="0" devices="tripinfo_flow0.3" vType="vtypeauto" speedFactor="0.94" vaporized=""/>
    <tripinfo id="flow0.5" depart="30.00" departLane="B4B3_0" departPos="4.10" departSpeed="0.00" departDelay="0.00" arrival="105.80" arrivalLane="B3A3_1" arrivalPos="72.80" arrivalSpeed="16.33" duration="75.80" routeLength="560.63" waitingTime="0.00" waitingCount="0" stopTime="0.00" timeLoss="40.01" rerouteNo="0" devices="tripinfo_flow0.5" vType="vtypeauto" speedFactor="1.18" vaporized=""/>
    <tripinfo id="flow0.4" depart="24.00" departLane="B4B3_0" departPos="4.10" departSpeed="0.00" departDelay="0.00" arrival="106.30" arrivalLane="B3A3_2" arrivalPos="72.80" arrivalSpeed="11.36" duration="82.30" routeLength="560.63" waitingTime="4.20" waitingCount="2" stopTime="0.00" timeLoss="31.15" rerouteNo="0" devices="tripinfo_flow0.4" vType="vtypeauto" speedFactor="0.83" vaporized=""/>
    <tripinfo id="flow0.6" depart="36.00" departLane="B4B3_0" departPos="4.10" departSpeed="0.00" departDelay="0.00" arrival="107.80" arrivalLane="B3A3_2" arrivalPos="72.80" arrivalSpeed="13.41" duration="71.80" routeLength="560.63" waitingTime="0.00" waitingCount="0" stopTime="0.00" timeLoss="28.45" rerouteNo="0" devices="tripinfo_flow0.6" vType="vtypeauto" speedFactor="0.97" vaporized=""/>
    <tripinfo id="flow5.9" depart="54.00" departLane="D4D3_0" departPos="4.10" departSpeed="0.00" departDelay="0.00" arrival="107.80" arrivalLane="D1D0_1" arrivalPos="72.80" arrivalSpeed="13.38" duration="53.80" routeLength="368.70" waitingTime="13.60" waitingCount="2" stopTime="0.00" timeLoss="26.34" rerouteNo="0" devices="tripinfo_flow5.9" vType="vtypeauto" speedFactor="0.97" vaporized=""/>
    <tripinfo id="flow5.7" depart="42.00" departLane="D4D3_0" departPos="4.10" departSpeed="0.00" departDelay="0.00" arrival="108.30" arrivalLane="D1D0_0" arrivalPos="72.80" arrivalSpeed="12.41" duration="66.30" routeLength="368.70" waitingTime="21.00" waitingCount="3" stopTime="0.00" timeLoss="36.75" rerouteNo="0" devices="tripinfo_flow5.7" vType="vtypeauto" speedFactor="0.90" vaporized=""/>
    <tripinfo id="flow5.6" depart="36.00" departLane="D4D3_0" departPos="4.10" departSpeed="0.00" departDelay="0.00" arrival="109.20" arrivalLane="D1D0_2" arrivalPos="72.80" arrivalSpeed="13.20" duration="73.20" routeLength="368.70" waitingTime="22.80" waitingCount="2" stopTime="0.00" timeLoss="45.42" rerouteNo="0" devices="tripinfo_flow5.6" vType="vtypeauto" speedFactor="0.96" vaporized=""/>
    <tripinfo id="flow0.7" depart="42.00" departLane="B4B3_0" departPos="4.10" departSpeed="0.00" departDelay="0.00" arrival="109.20" arrivalLane="B3A3_2" arrivalPos="72.80" arrivalSpeed="15.13" duration="67.20" routeLength="560.63" waitingTime="10.70" waitingCount="1" stopTime="0.00" timeLoss="28.60" rerouteNo="0" devices="tripinfo_flow0.7" vType="vtypeauto" speedFactor="1.09" vaporized=""/>
    <tripinfo id="flow5.8" depart="48.00" departLane="D4D3_0" departPos="4.10" departSpeed="0.00" departDelay="0.00" arrival="109.20" arrivalLane="D1D0_1" arrivalPos="72.80" arrivalSpeed="15.19" duration="61.20" routeLength="368.70" waitingTime="6.00" waitingCount="1" stopTime="0.00" timeLoss="36.96" rerouteNo="0" devices="tripinfo_flow5.8" vType="vtypeauto" speedFactor="1.10" vaporized=""/>
    <tripinfo id="flow0.8" depart="48.00" departLane="B4B3_0" departPos="4.10" departSpeed="0.00" departDelay="0.00" arrival="112.70" arrivalLane="B3A3_2" arrivalPos="72.80" arrivalSpeed="12.11" duration="64.70" routeLength="560.63" waitingTime="2.00" waitingCount="1" stopTime="0.00" timeLoss="16.55" rerouteNo="0" devices="tripinfo_flow0.8" vType="vtypeauto" speedFactor="0.88" vaporized=""/>
    <tripinfo id="flow5.13" depart="78.00" departLane="D4D3_0" departPos="4.10" departSpeed="0.00" departDelay="0.00" arrival="116.20" arrivalLane="D1D0_2" arrivalPos="72.80" arrivalSpeed="13.38" duration="38.20" routeLength="368.70" waitingTime="2.20" waitingCount="1" stopTime="0.00" timeLoss="10.70" rerouteNo="0" devices="tripinfo_flow5.13" vType="vtypeauto" speedFactor="0.97" vaporized=""/>
    <tripinfo id="flow5.11" depart="66.00" departLane="D4D3_0" departPos="4.10" departSpeed="0.00" departDelay="0.00" arrival="116.30" arrivalLane="D1D0_1" arrivalPos="72.80" arrivalSpeed="13.48" duration="50.30" routeLength="368.70" waitingTime="10.50" waitingCount="2" stopTime="0.00" timeLoss="22.95" rerouteNo="0" devices="tripinfo_flow5.11" vType="vtypeauto" speedFactor="0.97" vaporized=""/>
    <tripinfo id="flow1.10" depart="60.00" departLane="A3B3_0" departPos="4.10" departSpeed="0.00" departDelay="0.00" arrival="118.20" arrivalLane="D3E3_1" arrivalPos="72.80" arrivalSpeed="15.44" duration="58.20" routeLength="368.70" waitingTime="20.30" waitingCount="2" stopTime="0.00" timeLoss="34.46" rerouteNo="0" devices="tripinfo_flow1.10" vType="vtypeauto" speedFactor="1.12" vaporized=""/>
    <tripinfo id="flow5.12" depart="72.00" departLane="D4D3_0" departPos="4.10" departSpeed="0.00" departDelay="0.00" arrival="118.90" arrivalLane="D1D0_1" arrivalPos="72.80" arrivalSpeed="13.59" duration="46.90" routeLength="368.70" waitingTime="0.00" waitingCount="0" stopTime="0.00" timeLoss="19.87" rerouteNo="0" devices="tripinfo_flow5.12" vType="vtypeauto" speedFactor="0.98" vaporized=""/>
    <tripinfo id="flow1.13" depart="78.00" departLane="A3B3_0" departPos="4.10" departSpeed="0.00" departDelay="0.00" arrival="118.90" arrivalLane="D3E3_2" arrivalPos="72.80" arrivalSpeed="15.04" duration="40.90" routeLength="368.70" waitingTime="5.40" waitingCount="1" stopTime="0.00" timeLoss="16.43" rerouteNo="0" devices="tripinfo_flow1.13" vType="vtypeauto" speedFactor="1.09" vaporized=""/>
    <tripinfo id="flow1.9" depart="54.00" departLane="A3B3_0" departPos="4.10" departSpeed="0.00" departDelay="0.00" arrival="119.00" arrivalLane="D3E3_0" arrivalPos="72.80" arrivalSpeed="13.79" duration="65.00" routeLength="368.70" waitingTime="26.00" waitingCount="2" stopTime="0.00" timeLoss="38.35" rerouteNo="0" devices="tripinfo_flow1.9" vType="vtypeauto" speedFactor="1.00" vaporized=""/>
    <tripinfo id="flow1.12" depart="72.00" departLane="A3B3_0" departPos="4.10" departSpeed="0.00" departDelay="0.00" arrival="120.10" arrivalLane="D3E3_1" arrivalPos="72.80" arrivalSpeed="14.62" duration="48.10" routeLength="368.70" waitingTime="11.80" waitingCount="1" stopTime="0.00" timeLoss="22.90" rerouteNo="0" devices="tripinfo_flow1.12" vType="vtypeauto" speedFactor="1.06" vaporized=""/>
    <tripinfo id="flow5.10" depart="60.00" departLane="D4D3_0" departPos="4.10" departSpeed="0.00" departDelay="0.00" arrival="121.30" arrivalLane="D1D0_1" arrivalPos="72.80" arrivalSpeed="12.15" duration="61.30" routeLength="368.70" waitingTime="16.70" waitingCount="2" stopTime="0.00" timeLoss="31.14" rerouteNo="0" devices="tripinfo_flow5.10" vType="vtypeauto" speedFactor="0.88" vaporized=""/>
    <tripinfo id="flow1.11" depart="66.00" departLane="A3B3_0" departPos="4.10" departSpeed="0.00" departDelay="0.00" arrival="121.50" arrivalLane="D3E3_0" arrivalPos="72.80" arrivalSpeed="12.67" duration="55.50" routeLength="368.70" waitingTime="14.80" waitingCount="1" stopTime="0.00" timeLoss="26.41" rerouteNo="0" devices="tripinfo_flow1.11" vType="vtypeauto" speedFactor="0.91" vaporized=""/>
    <tripinfo id="flow2.8" depart="48.00" departLane="A0A1_0" departPos="4.10" departSpeed="0.00" departDelay="0.00" arrival="122.10" arrivalLane="C3D3_0" arrivalPos="72.80" arrivalSpeed="11.76" duration="74.10" routeLength="512.81" waitingTime="10.80" waitingCount="1" stopTime="0.00" timeLoss="27.01" rerouteNo="0" devices="tripinfo_flow2.8" vType="vtypeauto" speedFactor="0.85" vaporized=""/>
    <tripinfo id="flow1.14" depart="84.00" departLane="A3B3_0" departPos="4.10" departSpeed="0.00" departDelay="0.00" arrival="123.00" arrivalLane="D3E3_0" arrivalPos="72.80" arrivalSpeed="13.51" duration="39.00" routeLength="368.70" waitingTime="0.00" waitingCount="0" stopTime="0.00" timeLoss="11.79" rerouteNo="0" devices="tripinfo_flow1.14" vType="vtypeauto" speedFactor="0.98" vaporized=""/>
    <tripinfo id="flow1.15" depart="90.00" departLane="A3B3_0" departPos="4.10" departSpeed="0.00" departDelay="0.00" arrival="123.70" arrivalLane="D3E3_1" arrivalPos="72.80" arrivalSpeed="12.32" duration="33.70" routeLength="368.70" waitingTime="0.00" waitingCount="0" stopTime="0.00" timeLoss="3.84" rerouteNo="0" devices="tripinfo_flow1.15" vType="vtypeauto" speedFactor="0.89" vaporized=""/>
    <tripinfo id="flow2.9" depart="54.00" departLane="A0A1_0" departPos="4.10" departSpeed="0.00" departDelay="0.00" arrival="123.90" arrivalLane="C3D3_0" arrivalPos="72.80" arrivalSpeed="12.43" duration="69.90" routeLength="512.81" waitingTime="6.30" waitingCount="1" stopTime="0.00" timeLoss="25.07" rerouteNo="0" devices="tripinfo_flow2.9" vType="vtypeauto" speedFactor="0.90" vaporized=""/>
    <tripinfo id="flow3.0" depart="0.00" departLane="C0C1_0" departPos="4.10" departSpeed="0.00" departDelay="0.00" arrival="128.20" arrivalLane="D4E4_0" arrivalPos="76.80" arrivalSpeed="14.95" duration="128.20" routeLength="1052.87" waitingTime="21.10" waitingCount="5" stopTime="0.00" timeLoss="51.43" rerouteNo="0" devices="tripinfo_flow3.0" vType="vtypeauto" speedFactor="1.08" vaporized=""/>
    <tripinfo id="flow3.1" depart="6.00" departLane="C0C1_0" departPos="4.10" departSpeed="0.00" departDelay="0.00" arrival="132.70" arrivalLane="D4E4_0" arrivalPos="76.80" arrivalSpeed="11.85" duration="126.70" routeLength="1052.87" waitingTime="0.00" waitingCount="0" stopTime="0.00" timeLoss="29.56" rerouteNo="0" devices="tripinfo_flow3.1" vType="vtypeauto" speedFactor="0.86" vaporized=""/>
    <tripinfo id="flow5.15" depart="90.00" departLane="D4D3_0" departPos="4.10" departSpeed="0.00" departDelay="0.00" arrival="134.30" arrivalLane="D1D0_0" arrivalPos="72.80" arrivalSpeed="14.64" duration="44.30" routeLength="368.70" waitingTime="5.90" waitingCount="2" stopTime="0.00" timeLoss="19.17" rerouteNo="0" devices="tripinfo_flow5.15" vType="vtypeauto" speedFactor="1.06" vaporized=""/>
    <tripinfo id="flow5.14" depart="84.00" departLane="D4D3_0" departPos="4.10" departSpeed="0.00" departDelay="0.00" arrival="136.80" arrivalLane="D1D0_1" arrivalPos="72.80" arrivalSpeed="14.12" duration="52.80" routeLength="368.70" waitingTime="12.00" waitingCount="2" stopTime="0.00" timeLoss="26.75" rerouteNo="0" devices="tripinfo_flow5.14" vType="vtypeauto" speedFactor="1.02" vaporized=""/>
    <tripinfo id="flow2.10" depart="60.00" departLane="A0A1_0" departPos="4.10" departSpeed="0.00" departDelay="0.00" arrival="137.50" arrivalLane="C3D3_0" arrivalPos="72.80" arrivalSpeed="13.99" duration="77.50" routeLength="512.81" waitingTime="11.80" waitingCount="3" stopTime="0.00" timeLoss="37.79" rerouteNo="0" devices="tripinfo_flow2.10" vType="vtypeauto" speedFactor="1.02" vaporized=""/>
    <tripinfo id="flow5.16" depart="96.00" departLane="D4D3_0" departPos="4.10" departSpeed="0.00" departDelay="0.00" arrival="138.30" arrivalLane="D1D0_0" arrivalPos="72.80" arrivalSpeed="13.26" duration="42.30" routeLength="368.70" waitingTime="0.00" waitingCount="0" stopTime="0.00" timeLoss="14.52" rerouteNo="0" devices="tripinfo_flow5.16" vType="vtypeauto" speedFactor="0.96" vaporized=""/>
    <tripinfo id="flow1.16" depart="96.00" departLane="A3B3_0" departPos="4.10" departSpeed="0.00" departDelay="0.00" arrival="139.10" arrivalLane="D3E3_0" arrivalPos="72.80" arrivalSpeed="12.56" duration="43.10" routeLength="368.70" waitingTime="6.50" waitingCount="1" stopTime="0.00" timeLoss="13.74" rerouteNo="0" devices="tripinfo_flow1.16" vType="vtypeauto" speedFactor="0.91" vaporized=""/>
    <tripinfo id="flow2.11" depart="66.00" departLane="A0A1_0" departPos="4.10" departSpeed="0.00" departDelay="0.00" arrival="140.10" arrivalLane="C3D3_0" arrivalPos="72.80" arrivalSpeed="14.35" duration="74.10" routeLength="512.81" waitingTime="0.00" waitingCount="0" stopTime="0.00" timeLoss="35.27" rerouteNo="0" devices="tripinfo_flow2.11" vType="vtypeauto" speedFactor="1.04" vaporized=""/>
    <tripinfo id="flow2.13" depart="78.00" departLane="A0A1_0" departPos="4.10" departSpeed="0.00" departDelay="0.00" arrival="143.40" arrivalLane="C3D3_0" arrivalPos="72.80" arrivalSpeed="14.37" duration="65.40" routeLength="512.81" waitingTime="5.30" waitingCount="1" stopTime="0.00" timeLoss="26.42" rerouteNo="0" devices="tripinfo_flow2.13" vType="vtypeauto" speedFactor="1.03" vaporized=""/>
    <tripinfo id="flow2.12" depart="72.00" departLane="A0A1_0" departPos="4.10" departSpeed="0.00" departDelay="0.00" arrival="146.40" arrivalLane="C3D3_0" arrivalPos="72.80" arrivalSpeed="13.25" duration="74.40" routeLength="512.81" waitingTime="3.80" waitingCount="1" stopTime="0.00" timeLoss="32.16" rerouteNo="0" devices="tripinfo_flow2.12" vType="vtypeauto" speedFactor="0.96" vaporized=""/>
    <tripinfo id="flow3.2" depart="12.00" departLane="C0C1_0" departPos="4.10" departSpeed="0.00" departDelay="0.00" arrival="147.40" arrivalLane="D4E4_0" arrivalPos="76.80" arrivalSpeed="12.82" duration="135.40" routeLength="1052.87" waitingTime="18.00" waitingCount="3" stopTime="0.00" timeLoss="45.59" rerouteNo="0" devices="tripinfo_flow3.2" vType="vtypeauto" speedFactor="0.93" vaporized=""/>
    <tripinfo id="flow3.3" depart="18.00" departLane="C0C1_0" departPos="4.10" departSpeed="0.00" departDelay="0.00" arrival="149.50" arrivalLane="D4E4_0" arrivalPos="76.80" arrivalSpeed="13.93" duration="131.50" routeLength="1052.87" waitingTime="10.70" waitingCount="2" stopTime="0.00" timeLoss="49.23" rerouteNo="0" devices="tripinfo_flow3.3" vType="vtypeauto" speedFactor="1.01" vaporized=""/>
    <tripinfo id="flow0.10" depart="60.00" departLane="B4B3_0" departPos="4.10" departSpeed="0.00" departDelay="0.00" arrival="150.70" arrivalLane="B3A3_1" arrivalPos="72.80" arrivalSpeed="15.02" duration="90.70" routeLength="560.63" waitingTime="11.00" waitingCount="2" stopTime="0.00" timeLoss="51.67" rerouteNo="0" devices="tripinfo_flow0.10" vType="vtypeauto" speedFactor="1.08" vaporized=""/>
    <tripinfo id="flow2.14" depart="84.00" departLane="A0A1_0" departPos="4.10" departSpeed="0.00" departDelay="0.00" arrival="150.80" arrivalLane="C3D3_0" arrivalPos="72.80" arrivalSpeed="13.90" duration="66.80" routeLength="512.81" waitingTime="6.30" waitingCount="1" stopTime="0.00" timeLoss="26.60" rerouteNo="0" devices="tripinfo_flow2.14" vType="vtypeauto" speedFactor="1.00" vaporized=""/>
    <tripinfo id="flow3.4" depart="24.00" departLane="C0C1_0" departPos="4.10" departSpeed="0.00" departDelay="0.00" arrival="152.30" arrivalLane="D4E4_0" arrivalPos="76.80" arrivalSpeed="13.10" duration="128.30" routeLength="1052.87" waitingTime="0.00" waitingCount="0" stopTime="0.00" timeLoss="40.73" rerouteNo="0" devices="tripinfo_flow3.4" vType="vtypeauto" speedFactor="0.95" vaporized=""/>
    <tripinfo id="flow0.9" depart="54.00" departLane="B4B3_0" departPos="4.10" departSpeed="0.00" departDelay="0.00" arrival="152.70" arrivalLane="B3A3_2" arrivalPos="72.80" arrivalSpeed="13.91" duration="98.70" routeLength="560.63" waitingTime="29.40" waitingCount="5" stopTime="0.00" timeLoss="56.63" rerouteNo="0" devices="tripinfo_flow0.9" vType="vtypeauto" speedFactor="1.00" vaporized=""/>
    <tripinfo id="flow3.5" depart="30.00" departLane="C0C1_0" departPos="4.10" departSpeed="0.00" departDelay="0.00" arrival="153.80" arrivalLane="D4E4_0" arrivalPos="76.80" arrivalSpeed="15.84" duration="123.80" routeLength="1052.87" waitingTime="0.30" waitingCount="2" stopTime="0.00" timeLoss="52.82" rerouteNo="0" devices="tripinfo_flow3.5" vType="vtypeauto" speedFactor="1.17" vaporized=""/>
    <tripinfo id="flow0.11" depart="66.00" departLane="B4B3_0" departPos="4.10" departSpeed="0.00" departDelay="0.00" arrival="154.50" arrivalLane="B3A3_2" arrivalPos="72.80" arrivalSpeed="12.53" duration="88.50" routeLength="560.63" waitingTime="4.50" waitingCount="2" stopTime="0.00" timeLoss="42.01" rerouteNo="0" devices="tripinfo_flow0.11" vType="vtypeauto" speedFactor="0.91" vaporized=""/>
    <tripinfo id="flow0.12" depart="72.00" departLane="B4B3_0" departPos="4.10" departSpeed="0.00" departDelay="0.00" arrival="155.70" arrivalLane="B3A3_1" arrivalPos="72.80" arrivalSpeed="13.03" duration="83.70" routeLength="560.63" waitingTime="0.00" waitingCount="0" stopTime="0.00" timeLoss="38.83" rerouteNo="0" devices="tripinfo_flow0.12" vType="vtypeauto" speedFactor="0.94" vaporized=""/>
    <tripinfo id="flow0.13" depart="78.00" departLane="B4B3_0" departPos="4.10" departSpeed="0.00" departDelay="0.00" arrival="156.40" arrivalLane="B3A3_2" arrivalPos="72.80" arrivalSpeed="13.96" duration="78.40" routeLength="560.63" waitingTime="0.00" waitingCount="0" stopTime="0.00" timeLoss="36.54" rerouteNo="0" devices="tripinfo_flow0.13" vType="vtypeauto" speedFactor="1.01" vaporized=""/>
    <tripinfo id="flow2.15" depart="90.00" departLane="A0A1_0" departPos="4.10" departSpeed="0.00" departDelay="0.00" arrival="156.90" arrivalLane="C3D3_0" arrivalPos="72.80" arrivalSpeed="11.56" duration="66.90" routeLength="512.81" waitingTime="0.00" waitingCount="0" stopTime="0.00" timeLoss="18.51" rerouteNo="0" devices="tripinfo_flow2.15" vType="vtypeauto" speedFactor="0.83" vaporized=""/>
    <tripinfo id="flow0.14" depart="84.00" departLane="B4B3_0" departPos="4.10" departSpeed="0.00" departDelay="0.00" arrival="157.90" arrivalLane="B3A3_2" arrivalPos="72.80" arrivalSpeed="15.83" duration="73.90" routeLength="560.63" waitingTime="16.60" waitingCount="1" stopTime="0.00" timeLoss="37.08" rerouteNo="0" devices="tripinfo_flow0.14" vType="vtypeauto" speedFactor="1.15" vaporized=""/>