<?xml version="1.0" encoding="UTF-8"?>

<!-- generated on 2024-10-29 11:41:32 by Eclipse SUMO sumo Version 1.20.0
<configuration xmlns:xsi="http://www.w3.org/2001/XMLSchema-instance" xsi:noNamespaceSchemaLocation="http://sumo.dlr.de/xsd/sumoConfiguration.xsd">

    <input>
        <net-file value="./sim_cfg_grid_3_lanes/grid.net.xml"/>
        <route-files value="./sim_cfg_grid_3_lanes/10x0.08.rou.xml"/>
    </input>

    <output>
        <tripinfo-output value="./sim_cfg_grid_3_lanes/tripinfo-platooning_0.096.xml"/>
    </output>

    <time>
        <begin value="0"/>
        <end value="500"/>
        <step-length value="0.1"/>
    </time>

    <traci_server>
        <remote-port value="49411"/>
    </traci_server>

    <gui_only>
        <gui-settings-file value="./sim_cfg_grid_3_lanes/gui_settings.xml"/>
    </gui_only>

</configuration>
-->

<tripinfos xmlns:xsi="http://www.w3.org/2001/XMLSchema-instance" xsi:noNamespaceSchemaLocation="http://sumo.dlr.de/xsd/tripinfo_file.xsd">
    <tripinfo id="flow1.0" depart="0.00" departLane="A3B3_0" departPos="4.10" departSpeed="0.00" departDelay="0.00" arrival="42.60" arrivalLane="D3E3_0" arrivalPos="72.80" arrivalSpeed="12.94" duration="42.60" routeLength="368.70" waitingTime="6.80" waitingCount="1" stopTime="0.00" timeLoss="14.26" rerouteNo="0" devices="tripinfo_flow1.0" vType="vtypeauto" speedFactor="0.94" vaporized=""/>
    <tripinfo id="flow9.0" depart="0.00" departLane="A2B2_0" departPos="4.10" departSpeed="0.00" departDelay="0.00" arrival="51.30" arrivalLane="D2E2_0" arrivalPos="72.80" arrivalSpeed="11.82" duration="51.30" routeLength="368.70" waitingTime="9.90" waitingCount="2" stopTime="0.00" timeLoss="20.33" rerouteNo="0" devices="tripinfo_flow9.0" vType="vtypeauto" speedFactor="0.86" vaporized=""/>
    <tripinfo id="flow4.0" depart="0.40" departLane="C0C1_0" departPos="4.10" departSpeed="0.00" departDelay="0.40" arrival="58.60" arrivalLane="C3C4_0" arrivalPos="72.80" arrivalSpeed="14.27" duration="58.20" routeLength="368.70" waitingTime="15.60" waitingCount="3" stopTime="0.00" timeLoss="32.35" rerouteNo="0" devices="tripinfo_flow4.0" vType="vtypeauto" speedFactor="1.03" vaporized=""/>
    <tripinfo id="flow4.1" depart="12.40" departLane="C0C1_0" departPos="4.10" departSpeed="0.00" departDelay="0.40" arrival="58.90" arrivalLane="C3C4_0" arrivalPos="72.80" arrivalSpeed="13.71" duration="46.50" routeLength="368.70" waitingTime="6.90" waitingCount="2" stopTime="0.00" timeLoss="19.67" rerouteNo="0" devices="tripinfo_flow4.1" vType="vtypeauto" speedFactor="0.99" vaporized=""/>
    <tripinfo id="flow2.0" depart="0.00" departLane="A0A1_0" departPos="4.10" departSpeed="0.00" departDelay="0.00" arrival="60.10" arrivalLane="C3D3_0" arrivalPos="72.80" arrivalSpeed="13.94" duration="60.10" routeLength="512.81" waitingTime="6.60" waitingCount="1" stopTime="0.00" timeLoss="20.08" rerouteNo="0" devices="tripinfo_flow2.0" vType="vtypeauto" speedFactor="1.01" vaporized=""/>
    <tripinfo id="flow6.0" depart="0.00" departLane="D4D3_0" departPos="4.10" departSpeed="0.00" departDelay="0.00" arrival="61.50" arrivalLane="D1D0_0" arrivalPos="72.80" arrivalSpeed="14.43" duration="61.50" routeLength="368.70" waitingTime="18.80" waitingCount="3" stopTime="0.00" timeLoss="36.12" rerouteNo="0" devices="tripinfo_flow6.0" vType="vtypeauto" speedFactor="1.05" vaporized=""/>
    <tripinfo id="flow6.1" depart="12.00" departLane="D4D3_0" departPos="4.10" departSpeed="0.00" departDelay="0.00" arrival="62.30" arrivalLane="D1D0_1" arrivalPos="72.80" arrivalSpeed="12.13" duration="50.30" routeLength="368.70" waitingTime="8.60" waitingCount="2" stopTime="0.00" timeLoss="20.03" rerouteNo="0" devices="tripinfo_flow6.1" vType="vtypeauto" speedFactor="0.88" vaporized=""/>
    <tripinfo id="flow1.1" depart="12.00" departLane="A3B3_0" departPos="4.10" departSpeed="0.00" departDelay="0.00" arrival="63.60" arrivalLane="D3E3_0" arrivalPos="72.80" arrivalSpeed="14.22" duration="51.60" routeLength="368.70" waitingTime="8.60" waitingCount="3" stopTime="0.00" timeLoss="25.69" rerouteNo="0" devices="tripinfo_flow1.1" vType="vtypeauto" speedFactor="1.03" vaporized=""/>
    <tripinfo id="flow2.1" depart="12.00" departLane="A0A1_0" departPos="4.10" departSpeed="0.00" departDelay="0.00" arrival="63.80" arrivalLane="C3D3_0" arrivalPos="72.80" arrivalSpeed="14.51" duration="51.80" routeLength="512.81" waitingTime="0.00" waitingCount="0" stopTime="0.00" timeLoss="13.23" rerouteNo="0" devices="tripinfo_flow2.1" vType="vtypeauto" speedFactor="1.05" vaporized=""/>
    <tripinfo id="flow1.2" depart="24.00" departLane="A3B3_0" departPos="4.10" departSpeed="0.00" departDelay="0.00" arrival="63.80" arrivalLane="D3E3_1" arrivalPos="72.80" arrivalSpeed="13.92" duration="39.80" routeLength="368.70" waitingTime="3.90" waitingCount="1" stopTime="0.00" timeLoss="13.51" rerouteNo="0" devices="tripinfo_flow1.2" vType="vtypeauto" speedFactor="1.01" vaporized=""/>
    <tripinfo id="flow0.0" depart="0.00" departLane="B4B3_0" departPos="4.10" departSpeed="0.00" departDelay="0.00" arrival="64.30" arrivalLane="B3A3_2" arrivalPos="72.80" arrivalSpeed="14.70" duration="64.30" routeLength="560.63" waitingTime="11.20" waitingCount="2" stopTime="0.00" timeLoss="24.50" rerouteNo="0" devices="tripinfo_flow0.0" vType="vtypeauto" speedFactor="1.06" vaporized=""/>
    <tripinfo id="flow0.1" depart="12.00" departLane="B4B3_0" departPos="4.10" departSpeed="0.00" departDelay="0.00" arrival="68.00" arrivalLane="B3A3_2" arrivalPos="72.80" arrivalSpeed="15.04" duration="56.00" routeLength="560.63" waitingTime="0.00" waitingCount="0" stopTime="0.00" timeLoss="17.32" rerouteNo="0" devices="tripinfo_flow0.1" vType="vtypeauto" speedFactor="1.09" vaporized=""/>
    <tripinfo id="flow6.3" depart="36.00" departLane="D4D3_0" departPos="4.10" departSpeed="0.00" departDelay="0.00" arrival="68.60" arrivalLane="D1D0_1" arrivalPos="72.80" arrivalSpeed="13.43" duration="32.60" routeLength="368.70" waitingTime="0.00" waitingCount="0" stopTime="0.00" timeLoss="5.24" rerouteNo="0" devices="tripinfo_flow6.3" vType="vtypeauto" speedFactor="0.97" vaporized=""/>
    <tripinfo id="flow6.2" depart="24.00" departLane="D4D3_0" departPos="4.10" departSpeed="0.00" departDelay="0.00" arrival="70.60" arrivalLane="D1D0_1" arrivalPos="72.80" arrivalSpeed="12.69" duration="46.60" routeLength="368.70" waitingTime="6.50" waitingCount="1" stopTime="0.00" timeLoss="17.59" rerouteNo="0" devices="tripinfo_flow6.2" vType="vtypeauto" speedFactor="0.92" vaporized=""/>
    <tripinfo id="flow9.1" depart="12.00" departLane="A2B2_0" departPos="4.10" departSpeed="0.00" departDelay="0.00" arrival="71.30" arrivalLane="D2E2_0" arrivalPos="72.80" arrivalSpeed="16.06" duration="59.30" routeLength="368.70" waitingTime="17.20" waitingCount="3" stopTime="0.00" timeLoss="36.29" rerouteNo="0" devices="tripinfo_flow9.1" vType="vtypeauto" speedFactor="1.16" vaporized=""/>
    <tripinfo id="flow1.3" depart="36.00" departLane="A3B3_0" departPos="4.10" departSpeed="0.00" departDelay="0.00" arrival="76.30" arrivalLane="D3E3_0" arrivalPos="72.80" arrivalSpeed="15.93" duration="40.30" routeLength="368.70" waitingTime="4.70" waitingCount="1" stopTime="0.00" timeLoss="17.26" rerouteNo="0" devices="tripinfo_flow1.3" vType="vtypeauto" speedFactor="1.15" vaporized=""/>
    <tripinfo id="flow1.4" depart="48.00" departLane="A3B3_0" departPos="4.10" departSpeed="0.00" departDelay="0.00" arrival="79.60" arrivalLane="D3E3_1" arrivalPos="72.80" arrivalSpeed="13.24" duration="31.60" routeLength="368.70" waitingTime="0.00" waitingCount="0" stopTime="0.00" timeLoss="3.79" rerouteNo="0" devices="tripinfo_flow1.4" vType="vtypeauto" speedFactor="0.96" vaporized=""/>
    <tripinfo id="flow5.0" depart="0.00" departLane="E2D2_0" departPos="4.10" departSpeed="0.00" departDelay="0.00" arrival="80.20" arrivalLane="B1A1_0" arrivalPos="72.80" arrivalSpeed="11.49" duration="80.20" routeLength="606.12" waitingTime="11.30" waitingCount="2" stopTime="0.00" timeLoss="22.89" rerouteNo="0" devices="tripinfo_flow5.0" vType="vtypeauto" speedFactor="0.83" vaporized=""/>
    <tripinfo id="flow2.2" depart="24.00" departLane="A0A1_0" departPos="4.10" departSpeed="0.00" departDelay="0.00" arrival="80.30" arrivalLane="C3D3_0" arrivalPos="72.80" arrivalSpeed="13.51" duration="56.30" routeLength="512.81" waitingTime="0.30" waitingCount="1" stopTime="0.00" timeLoss="15.00" rerouteNo="0" devices="tripinfo_flow2.2" vType="vtypeauto" speedFactor="0.97" vaporized=""/>
    <tripinfo id="flow4.2" depart="24.40" departLane="C0C1_0" departPos="4.10" departSpeed="0.00" departDelay="0.40" arrival="80.50" arrivalLane="C3C4_0" arrivalPos="72.80" arrivalSpeed="11.46" duration="56.10" routeLength="368.70" waitingTime="11.70" waitingCount="2" stopTime="0.00" timeLoss="23.96" rerouteNo="0" devices="tripinfo_flow4.2" vType="vtypeauto" speedFactor="0.83" vaporized=""/>
    <tripinfo id="flow5.1" depart="12.00" departLane="E2D2_0" departPos="4.10" departSpeed="0.00" departDelay="0.00" arrival="84.80" arrivalLane="B1A1_0" arrivalPos="72.80" arrivalSpeed="12.78" duration="72.80" routeLength="606.12" waitingTime="4.50" waitingCount="3" stopTime="0.00" timeLoss="21.39" rerouteNo="0" devices="tripinfo_flow5.1" vType="vtypeauto" speedFactor="0.93" vaporized=""/>
    <tripinfo id="flow0.2" depart="24.00" departLane="B4B3_0" departPos="4.10" departSpeed="0.00" departDelay="0.00" arrival="86.70" arrivalLane="B3A3_2" arrivalPos="72.80" arrivalSpeed="14.09" duration="62.70" routeLength="560.63" waitingTime="7.00" waitingCount="2" stopTime="0.00" timeLoss="21.23" rerouteNo="0" devices="tripinfo_flow0.2" vType="vtypeauto" speedFactor="1.02" vaporized=""/>
    <tripinfo id="flow6.4" depart="48.00" departLane="D4D3_0" departPos="4.10" departSpeed="0.00" departDelay="0.00" arrival="87.50" arrivalLane="D1D0_1" arrivalPos="72.80" arrivalSpeed="13.82" duration="39.50" routeLength="368.70" waitingTime="3.70" waitingCount="1" stopTime="0.00" timeLoss="12.88" rerouteNo="0" devices="tripinfo_flow6.4" vType="vtypeauto" speedFactor="1.00" vaporized=""/>
    <tripinfo id="flow0.3" depart="36.00" departLane="B4B3_0" departPos="4.10" departSpeed="0.00" departDelay="0.00" arrival="88.10" arrivalLane="B3A3_2" arrivalPos="72.80" arrivalSpeed="16.26" duration="52.10" routeLength="560.63" waitingTime="0.00" waitingCount="0" stopTime="0.00" timeLoss="16.32" rerouteNo="0" devices="tripinfo_flow0.3" vType="vtypeauto" speedFactor="1.18" vaporized=""/>
    <tripinfo id="flow8.3" depart="38.80" departLane="D4D3_0" departPos="4.10" departSpeed="0.00" departDelay="2.80" arrival="89.30" arrivalLane="B1A1_2" arrivalPos="72.80" arrivalSpeed="15.26" duration="50.50" routeLength="550.53" waitingTime="0.00" waitingCount="0" stopTime="0.00" timeLoss="13.90" rerouteNo="0" devices="tripinfo_flow8.3" vType="vtypeauto" speedFactor="1.10" vaporized=""/>
    <tripinfo id="flow9.2" depart="24.00" departLane="A2B2_0" departPos="4.10" departSpeed="0.00" departDelay="0.00" arrival="90.00" arrivalLane="D2E2_0" arrivalPos="72.80" arrivalSpeed="12.86" duration="66.00" routeLength="368.70" waitingTime="22.00" waitingCount="3" stopTime="0.00" timeLoss="37.49" rerouteNo="0" devices="tripinfo_flow9.2" vType="vtypeauto" speedFactor="0.93" vaporized=""/>
    <tripinfo id="flow9.3" depart="36.00" departLane="A2B2_0" departPos="4.10" departSpeed="0.00" departDelay="0.00" arrival="90.30" arrivalLane="D2E2_0" arrivalPos="72.80" arrivalSpeed="12.41" duration="54.30" routeLength="368.70" waitingTime="13.20" waitingCount="2" stopTime="0.00" timeLoss="24.78" rerouteNo="0" devices="tripinfo_flow9.3" vType="vtypeauto" speedFactor="0.90" vaporized=""/>
    <tripinfo id="flow8.1" depart="14.90" departLane="D4D3_0" departPos="4.10" departSpeed="0.00" departDelay="2.90" arrival="91.90" arrivalLane="B1A1_1" arrivalPos="72.80" arrivalSpeed="13.00" duration="77.00" routeLength="550.53" waitingTime="14.10" waitingCount="2" stopTime="0.00" timeLoss="33.85" rerouteNo="0" devices="tripinfo_flow8.1" vType="vtypeauto" speedFactor="0.94" vaporized=""/>
    <tripinfo id="flow8.0" depart="2.80" departLane="D4D3_0" departPos="4.10" departSpeed="0.00" departDelay="2.80" arrival="92.00" arrivalLane="B1A1_0" arrivalPos="72.80" arrivalSpeed="13.02" duration="89.20" routeLength="550.53" waitingTime="12.10" waitingCount="3" stopTime="0.00" timeLoss="46.09" rerouteNo="0" devices="tripinfo_flow8.0" vType="vtypeauto" speedFactor="0.94" vaporized=""/>
    <tripinfo id="flow8.2" depart="26.80" departLane="D4D3_0" departPos="4.10" departSpeed="0.00" departDelay="2.80" arrival="93.40" arrivalLane="B1A1_0" arrivalPos="72.80" arrivalSpeed="15.51" duration="66.60" routeLength="550.53" waitingTime="1.00" waitingCount="1" stopTime="0.00" timeLoss="30.89" rerouteNo="0" devices="tripinfo_flow8.2" vType="vtypeauto" speedFactor="1.13" vaporized=""/>
    <tripinfo id="flow4.4" depart="48.30" departLane="C0C1_0" departPos="4.10" departSpeed="0.00" departDelay="0.30" arrival="96.60" arrivalLane="C3C4_1" arrivalPos="72.80" arrivalSpeed="14.42" duration="48.30" routeLength="368.70" waitingTime="9.60" waitingCount="2" stopTime="0.00" timeLoss="22.82" rerouteNo="0" devices="tripinfo_flow4.4" vType="vtypeauto" speedFactor="1.04" vaporized=""/>
    <tripinfo id="flow4.3" depart="36.40" departLane="C0C1_0" departPos="4.10" departSpeed="0.00" departDelay="0.40" arrival="96.70" arrivalLane="C3C4_0" arrivalPos="72.80" arrivalSpeed="13.80" duration="60.30" routeLength="368.70" waitingTime="17.10" waitingCount="3" stopTime="0.00" timeLoss="33.57" rerouteNo="0" devices="tripinfo_flow4.3" vType="vtypeauto" speedFactor="0.99" vaporized=""/>
    <tripinfo id="flow2.3" depart="36.00" departLane="A0A1_0" departPos="4.10" departSpeed="0.00" departDelay="0.00" arrival="98.50" arrivalLane="C3D3_0" arrivalPos="72.80" arrivalSpeed="13.93" duration="62.50" routeLength="512.81" waitingTime="4.10" waitingCount="1" stopTime="0.00" timeLoss="22.49" rerouteNo="0" devices="tripinfo_flow2.3" vType="vtypeauto" speedFactor="1.01" vaporized=""/>
    <tripinfo id="flow2.4" depart="48.00" departLane="A0A1_0" departPos="4.10" departSpeed="0.00" departDelay="0.00" arrival="100.60" arrivalLane="C3D3_0" arrivalPos="72.80" arrivalSpeed="15.13" duration="52.60" routeLength="512.81" waitingTime="0.00" waitingCount="0" stopTime="0.00" timeLoss="15.55" rerouteNo="0" devices="tripinfo_flow2.4" vType="vtypeauto" speedFactor="1.09" vaporized=""/>
    <tripinfo id="flow9.4" depart="48.00" departLane="A2B2_0" departPos="4.10" departSpeed="0.00" departDelay="0.00" arrival="107.50" arrivalLane="D2E2_0" arrivalPos="72.80" arrivalSpeed="11.73" duration="59.50" routeLength="368.70" waitingTime="14.10" waitingCount="3" stopTime="0.00" timeLoss="28.22" rerouteNo="0" devices="tripinfo_flow9.4" vType="vtypeauto" speedFactor="0.85" vaporized=""/>
    <tripinfo id="flow8.4" depart="50.80" departLane="D4D3_0" departPos="4.10" departSpeed="0.00" departDelay="2.80" arrival="108.40" arrivalLane="B1A1_1" arrivalPos="72.80" arrivalSpeed="12.11" duration="57.60" routeLength="550.53" waitingTime="0.00" waitingCount="0" stopTime="0.00" timeLoss="11.49" rerouteNo="0" devices="tripinfo_flow8.4" vType="vtypeauto" speedFactor="0.88" vaporized=""/>
    <tripinfo id="flow0.4" depart="48.00" departLane="B4B3_0" departPos="4.10" departSpeed="0.00" departDelay="0.00" arrival="109.50" arrivalLane="B3A3_2" arrivalPos="72.80" arrivalSpeed="14.22" duration="61.50" routeLength="560.63" waitingTime="9.60" waitingCount="1" stopTime="0.00" timeLoss="20.47" rerouteNo="0" devices="tripinfo_flow0.4" vType="vtypeauto" speedFactor="1.03" vaporized=""/>
    <tripinfo id="flow6.6" depart="72.00" departLane="D4D3_0" departPos="4.10" departSpeed="0.00" departDelay="0.00" arrival="112.20" arrivalLane="D1D0_1" arrivalPos="72.80" arrivalSpeed="12.48" duration="40.20" routeLength="368.70" waitingTime="3.10" waitingCount="1" stopTime="0.00" timeLoss="10.89" rerouteNo="0" devices="tripinfo_flow6.6" vType="vtypeauto" speedFactor="0.91" vaporized=""/>
    <tripinfo id="flow6.5" depart="60.00" departLane="D4D3_0" departPos="4.10" departSpeed="0.00" departDelay="0.00" arrival="113.40" arrivalLane="D1D0_2" arrivalPos="72.80" arrivalSpeed="12.38" duration="53.40" routeLength="368.70" waitingTime="9.20" waitingCount="2" stopTime="0.00" timeLoss="23.88" rerouteNo="0" devices="tripinfo_flow6.5" vType="vtypeauto" speedFactor="0.90" vaporized=""/>
    <tripinfo id="flow5.2" depart="24.00" departLane="E2D2_0" departPos="4.10" departSpeed="0.00" departDelay="0.00" arrival="116.00" arrivalLane="B1A1_0" arrivalPos="72.80" arrivalSpeed="12.12" duration="92.00" routeLength="606.12" waitingTime="16.30" waitingCount="5" stopTime="0.00" timeLoss="37.43" rerouteNo="0" devices="tripinfo_flow5.2" vType="vtypeauto" speedFactor="0.87" vaporized=""/>
    <tripinfo id="flow0.5" depart="60.00" departLane="B4B3_0" departPos="4.10" departSpeed="0.00" departDelay="0.00" arrival="116.10" arrivalLane="B3A3_2" arrivalPos="72.80" arrivalSpeed="11.86" duration="56.10" routeLength="560.63" waitingTime="0.00" waitingCount="0" stopTime="0.00" timeLoss="6.75" rerouteNo="0" devices="tripinfo_flow0.5" vType="vtypeauto" speedFactor="0.85" vaporized=""/>
    <tripinfo id="flow8.5" depart="62.80" departLane="D4D3_0" departPos="4.10" departSpeed="0.00" departDelay="2.80" arrival="127.20" arrivalLane="B1A1_0" arrivalPos="72.80" arrivalSpeed="14.17" duration="64.40" routeLength="550.53" waitingTime="2.00" waitingCount="1" stopTime="0.00" timeLoss="24.95" rerouteNo="0" devices="tripinfo_flow8.5" vType="vtypeauto" speedFactor="1.02" vaporized=""/>
    <tripinfo id="flow4.5" depart="60.40" departLane="C0C1_0" departPos="4.10" departSpeed="0.00" departDelay="0.40" arrival="127.70" arrivalLane="C3C4_0" arrivalPos="72.80" arrivalSpeed="13.89" duration="67.30" routeLength="368.70" waitingTime="24.00" waitingCount="3" stopTime="0.00" timeLoss="40.75" rerouteNo="0" devices="tripinfo_flow4.5" vType="vtypeauto" speedFactor="1.00" vaporized=""/>
    <tripinfo id="flow4.6" depart="72.30" departLane="C0C1_0" departPos="4.10" departSpeed="0.00" departDelay="0.30" arrival="128.00" arrivalLane="C3C4_0" arrivalPos="72.80" arrivalSpeed="13.01" duration="55.70" routeLength="368.70" waitingTime="15.40" waitingCount="2" stopTime="0.00" timeLoss="27.34" rerouteNo="0" devices="tripinfo_flow4.6" vType="vtypeauto" speedFactor="0.94" vaporized=""/>
    <tripinfo id="flow9.6" depart="72.00" departLane="A2B2_0" departPos="4.10" departSpeed="0.00" departDelay="0.00" arrival="128.60" arrivalLane="D2E2_1" arrivalPos="72.80" arrivalSpeed="14.15" duration="56.60" routeLength="368.70" waitingTime="13.00" waitingCount="3" stopTime="0.00" timeLoss="30.57" rerouteNo="0" devices="tripinfo_flow9.6" vType="vtypeauto" speedFactor="1.02" vaporized=""/>
    <tripinfo id="flow9.5" depart="60.00" departLane="A2B2_0" departPos="4.10" departSpeed="0.00" departDelay="0.00" arrival="129.00" arrivalLane="D2E2_0" arrivalPos="72.80" arrivalSpeed="13.42" duration="69.00" routeLength="368.70" waitingTime="25.20" waitingCount="3" stopTime="0.00" timeLoss="41.56" rerouteNo="0" devices="tripinfo_flow9.5" vType="vtypeauto" speedFactor="0.97" vaporized=""/>
    <tripinfo id="flow8.6" depart="74.80" departLane="D4D3_0" departPos="4.10" departSpeed="0.00" departDelay="2.80" arrival="129.00" arrivalLane="B1A1_0" arrivalPos="72.80" arrivalSpeed="14.43" duration="54.20" routeLength="550.53" waitingTime="0.00" waitingCount="0" stopTime="0.00" timeLoss="15.38" rerouteNo="0" devices="tripinfo_flow8.6" vType="vtypeauto" speedFactor="1.04" vaporized=""/>
    <tripinfo id="flow6.7" depart="84.00" departLane="D4D3_0" departPos="4.10" departSpeed="0.00" departDelay="0.00" arrival="129.50" arrivalLane="D1D0_2" arrivalPos="72.80" arrivalSpeed="14.31" duration="45.50" routeLength="368.70" waitingTime="5.00" waitingCount="2" stopTime="0.00" timeLoss="19.78" rerouteNo="0" devices="tripinfo_flow6.7" vType="vtypeauto" speedFactor="1.03" vaporized=""/>
    <tripinfo id="flow2.5" depart="60.00" departLane="A0A1_0" departPos="4.10" departSpeed="0.00" departDelay="0.00" arrival="130.60" arrivalLane="C3D3_0" arrivalPos="72.80" arrivalSpeed="9.12" duration="70.60" routeLength="512.81" waitingTime="7.00" waitingCount="2" stopTime="0.00" timeLoss="30.94" rerouteNo="0" devices="tripinfo_flow2.5" vType="vtypeauto" speedFactor="1.02" vaporized=""/>
    <tripinfo id="flow0.6" depart="72.00" departLane="B4B3_0" departPos="4.10" departSpeed="0.00" departDelay="0.00" arrival="133.70" arrivalLane="B3A3_2" arrivalPos="72.80" arrivalSpeed="14.99" duration="61.70" routeLength="560.63" waitingTime="5.70" waitingCount="2" stopTime="0.00" timeLoss="22.74" rerouteNo="0" devices="tripinfo_flow0.6" vType="vtypeauto" speedFactor="1.08" vaporized=""/>
    <tripinfo id="flow4.7" depart="84.40" departLane="C0C1_0" departPos="4.10" departSpeed="0.00" departDelay="0.40" arrival="134.30" arrivalLane="C3C4_1" arrivalPos="72.80" arrivalSpeed="13.22" duration="49.90" routeLength="368.70" waitingTime="8.50" waitingCount="2" stopTime="0.00" timeLoss="22.10" rerouteNo="0" devices="tripinfo_flow4.7" vType="vtypeauto" speedFactor="0.96" vaporized=""/>
    <tripinfo id="flow1.5" depart="60.00" departLane="A3B3_0" departPos="4.10" departSpeed="0.00" departDelay="0.00" arrival="135.30" arrivalLane="D3E3_0" arrivalPos="72.80" arrivalSpeed="16.18" duration="75.30" routeLength="368.70" waitingTime="33.10" waitingCount="3" stopTime="0.00" timeLoss="52.54" rerouteNo="0" devices="tripinfo_flow1.5" vType="vtypeauto" speedFactor="1.17" vaporized=""/>
    <tripinfo id="flow1.6" depart="72.00" departLane="A3B3_0" departPos="4.10" departSpeed="0.00" departDelay="0.00" arrival="135.40" arrivalLane="D3E3_0" arrivalPos="72.80" arrivalSpeed="15.46" duration="63.40" routeLength="368.70" waitingTime="25.40" waitingCount="2" stopTime="0.00" timeLoss="39.65" rerouteNo="0" devices="tripinfo_flow1.6" vType="vtypeauto" speedFactor="1.12" vaporized=""/>
    <tripinfo id="flow1.8" depart="96.00" departLane="A3B3_0" departPos="4.10" departSpeed="0.00" departDelay="0.00" arrival="135.70" arrivalLane="D3E3_2" arrivalPos="72.80" arrivalSpeed="13.83" duration="39.70" routeLength="368.70" waitingTime="2.70" waitingCount="1" stopTime="0.00" timeLoss="13.03" rerouteNo="0" devices="tripinfo_flow1.8" vType="vtypeauto" speedFactor="1.00" vaporized=""/>
    <tripinfo id="flow0.7" depart="84.00" departLane="B4B3_0" departPos="4.10" departSpeed="0.00" departDelay="0.00" arrival="135.80" arrivalLane="B3A3_2" arrivalPos="72.80" arrivalSpeed="14.09" duration="51.80" routeLength="560.63" waitingTime="0.00" waitingCount="0" stopTime="0.00" timeLoss="10.49" rerouteNo="0" devices="tripinfo_flow0.7" vType="vtypeauto" speedFactor="1.02" vaporized=""/>
    <tripinfo id="flow5.3" depart="36.00" departLane="E2D2_0" departPos="4.10" departSpeed="0.00" departDelay="0.00" arrival="136.40" arrivalLane="B1A1_0" arrivalPos="72.80" arrivalSpeed="14.15" duration="100.40" routeLength="606.12" waitingTime="21.90" waitingCount="3" stopTime="0.00" timeLoss="53.66" rerouteNo="0" devices="tripinfo_flow5.3" vType="vtypeauto" speedFactor="1.02" vaporized=""/>
    <tripinfo id="flow1.7" depart="84.00" departLane="A3B3_0" departPos="4.10" departSpeed="0.00" departDelay="0.00" arrival="137.30" arrivalLane="D3E3_0" arrivalPos="72.80" arrivalSpeed="13.40" duration="53.30" routeLength="368.70" waitingTime="7.80" waitingCount="2" stopTime="0.00" timeLoss="26.01" rerouteNo="0" devices="tripinfo_flow1.7" vType="vtypeauto" speedFactor="0.97" vaporized=""/>
    <tripinfo id="flow9.8" depart="96.00" departLane="A2B2_0" departPos="4.10" departSpeed="0.00" departDelay="0.00" arrival="143.60" arrivalLane="D2E2_1" arrivalPos="72.80" arrivalSpeed="14.09" duration="47.60" routeLength="368.70" waitingTime="9.30" waitingCount="1" stopTime="0.00" timeLoss="21.62" rerouteNo="0" devices="tripinfo_flow9.8" vType="vtypeauto" speedFactor="1.02" vaporized=""/>
    <tripinfo id="flow9.7" depart="84.00" departLane="A2B2_0" departPos="4.10" departSpeed="0.00" departDelay="0.00" arrival="144.00" arrivalLane="D2E2_0" arrivalPos="72.80" arrivalSpeed="15.09" duration="60.00" routeLength="368.70" waitingTime="19.30" waitingCount="2" stopTime="0.00" timeLoss="35.51" rerouteNo="0" devices="tripinfo_flow9.7" vType="vtypeauto" speedFactor="1.09" vaporized=""/>
    <tripinfo id="flow6.9" depart="108.00" departLane="D4D3_0" departPos="4.10" departSpeed="0.00" departDelay="0.00" arrival="145.40" arrivalLane="D1D0_1" arrivalPos="72.80" arrivalSpeed="14.03" duration="37.40" routeLength="368.70" waitingTime="1.20" waitingCount="1" stopTime="0.00" timeLoss="11.12" rerouteNo="0" devices="tripinfo_flow6.9" vType="vtypeauto" speedFactor="1.01" vaporized=""/>
    <tripinfo id="flow9.9" depart="108.00" departLane="A2B2_0" departPos="4.10" departSpeed="0.00" departDelay="0.00" arrival="145.50" arrivalLane="D2E2_0" arrivalPos="72.80" arrivalSpeed="15.17" duration="37.50" routeLength="368.70" waitingTime="3.70" waitingCount="1" stopTime="0.00" timeLoss="13.28" rerouteNo="0" devices="tripinfo_flow9.9" vType="vtypeauto" speedFactor="1.10" vaporized=""/>
    <tripinfo id="flow6.8" depart="96.00" departLane="D4D3_0" departPos="4.10" departSpeed="0.00" departDelay="0.00" arrival="147.50" arrivalLane="D1D0_2" arrivalPos="72.80" arrivalSpeed="13.88" duration="51.50" routeLength="368.70" waitingTime="9.60" waitingCount="1" stopTime="0.00" timeLoss="24.94" rerouteNo="0" devices="tripinfo_flow6.8" vType="vtypeauto" speedFactor="1.00" vaporized=""/>
    <tripinfo id="flow3.0" depart="0.00" departLane="C0C1_0" departPos="4.10" departSpeed="0.00" departDelay="0.00" arrival="150.40" arrivalLane="D4E4_0" arrivalPos="76.80" arrivalSpeed="14.93" duration="150.40" routeLength="1052.87" waitingTime="33.50" waitingCount="4" stopTime="0.00" timeLoss="73.62" rerouteNo="0" devices="tripinfo_flow3.0" vType="vtypeauto" speedFactor="1.08" vaporized=""/>
    <tripinfo id="flow5.4" depart="48.00" departLane="E2D2_0" departPos="4.10" departSpeed="0.00" departDelay="0.00" arrival="152.30" arrivalLane="B1A1_0" arrivalPos="72.80" arrivalSpeed="15.04" duration="104.30" routeLength="606.12" waitingTime="26.80" waitingCount="6" stopTime="0.00" timeLoss="60.51" rerouteNo="0" devices="tripinfo_flow5.4" vType="vtypeauto" speedFactor="1.09" vaporized=""/>
    <tripinfo id="flow3.1" depart="12.00" departLane="C0C1_0" departPos="4.10" departSpeed="0.00" departDelay="0.00" arrival="152.90" arrivalLane="D4E4_0" arrivalPos="76.80" arrivalSpeed="15.55" duration="140.90" routeLength="1052.87" waitingTime="25.20" waitingCount="3" stopTime="0.00" timeLoss="66.82" rerouteNo="0" devices="tripinfo_flow3.1" vType="vtypeauto" speedFactor="1.12" vaporized=""/>
    <tripinfo id="flow4.8" depart="96.40" departLane="C0C1_0" departPos="4.10" departSpeed="0.00" departDelay="0.40" arrival="153.70" arrivalLane="C3C4_1" arrivalPos="72.80" arrivalSpeed="15.93" duration="57.30" routeLength="368.70" waitingTime="19.80" waitingCount="2" stopTime="0.00" timeLoss="34.13" rerouteNo="0" devices="tripinfo_flow4.8" vType="vtypeauto" speedFactor="1.15" vaporized=""/>
    <tripinfo id="flow4.9" depart="108.30" departLane="C0C1_0" departPos="4.10" departSpeed="0.00" departDelay="0.30" arrival="154.10" arrivalLane="C3C4_0" arrivalPos="72.80" arrivalSpeed="15.05" duration="45.80" routeLength="368.70" waitingTime="4.40" waitingCount="1" stopTime="0.00" timeLoss="21.46" rerouteNo="0" devices="tripinfo_flow4.9" vType="vtypeauto" speedFactor="1.09" vaporized=""/>
    <tripinfo id="flow1.10" depart="120.00" departLane="A3B3_0" departPos="4.10" departSpeed="0.00" departDelay="0.00" arrival="160.80" arrivalLane="D3E3_1" arrivalPos="72.80" arrivalSpeed="13.28" duration="40.80" routeLength="368.70" waitingTime="4.80" waitingCount="1" stopTime="0.00" timeLoss="13.04" rerouteNo="0" devices="tripinfo_flow1.10" vType="vtypeauto" speedFactor="0.96" vaporized=""/>
    <tripinfo id="flow1.9" depart="108.00" departLane="A3B3_0" departPos="4.10" departSpeed="0.00" departDelay="0.00" arrival="161.30" arrivalLane="D3E3_0" arrivalPos="72.80" arrivalSpeed="12.38" duration="53.30" routeLength="368.70" waitingTime="12.40" waitingCount="2" stopTime="0.00" timeLoss="23.48" rerouteNo="0" devices="tripinfo_flow1.9" vType="vtypeauto" speedFactor="0.89" vaporized=""/>
    <tripinfo id="flow9.11" depart="132.00" departLane="A2B2_0" departPos="4.10" departSpeed="0.00" departDelay="0.00" arrival="168.00" arrivalLane="D2E2_1" arrivalPos="72.80" arrivalSpeed="14.76" duration="36.00" routeLength="368.70" waitingTime="0.70" waitingCount="1" stopTime="0.00" timeLoss="11.14" rerouteNo="0" devices="tripinfo_flow9.11" vType="vtypeauto" speedFactor="1.07" vaporized=""/>
    <tripinfo id="flow6.10" depart="120.00" departLane="D4D3_0" departPos="4.10" departSpeed="0.00" departDelay="0.00" arrival="169.00" arrivalLane="D1D0_2" arrivalPos="72.80" arrivalSpeed="14.03" duration="49.00" routeLength="368.70" waitingTime="12.60" waitingCount="1" stopTime="0.00" timeLoss="22.81" rerouteNo="0" devices="tripinfo_flow6.10" vType="vtypeauto" speedFactor="1.01" vaporized=""/>
    <tripinfo id="flow9.10" depart="120.00" departLane="A2B2_0" departPos="4.10" departSpeed="0.00" departDelay="0.00" arrival="170.00" arrivalLane="D2E2_0" arrivalPos="72.80" arrivalSpeed="13.32" duration="50.00" routeLength="368.70" waitingTime="10.30" waitingCount="2" stopTime="0.00" timeLoss="22.26" rerouteNo="0" devices="tripinfo_flow9.10" vType="vtypeauto" speedFactor="0.96" vaporized=""/>
    <tripinfo id="flow3.2" depart="24.00" departLane="C0C1_0" departPos="4.10" departSpeed="0.00" departDelay="0.00" arrival="171.40" arrivalLane="D4E4_0" arrivalPos="76.80" arrivalSpeed="12.24" duration="147.40" routeLength="1052.87" waitingTime="15.40" waitingCount="4" stopTime="0.00" timeLoss="53.91" rerouteNo="0" devices="tripinfo_flow3.2" vType="vtypeauto" speedFactor="0.89" vaporized=""/>