<?xml version="1.0" encoding="UTF-8"?>

<!-- generated on 2024-10-24 11:21:21 by Eclipse SUMO sumo Version 1.20.0
<configuration xmlns:xsi="http://www.w3.org/2001/XMLSchema-instance" xsi:noNamespaceSchemaLocation="http://sumo.dlr.de/xsd/sumoConfiguration.xsd">

    <input>
        <net-file value="sim_cfg_grid_3_lanes/grid.net.xml"/>
        <route-files value="sim_cfg_grid_3_lanes/grid.rou.xml"/>
    </input>

    <output>
        <tripinfo-output value="sim_cfg_grid_3_lanes/tripinfo.xml"/>
    </output>

    <time>
        <begin value="0"/>
        <end value="500"/>
        <step-length value="0.1"/>
    </time>

    <traci_server>
        <remote-port value="49325"/>
    </traci_server>

    <gui_only>
        <gui-settings-file value="sim_cfg_grid_3_lanes/gui_settings.xml"/>
    </gui_only>

</configuration>
-->

<tripinfos xmlns:xsi="http://www.w3.org/2001/XMLSchema-instance" xsi:noNamespaceSchemaLocation="http://sumo.dlr.de/xsd/tripinfo_file.xsd">
    <tripinfo id="flow4.0" depart="0.40" departLane="C0C1_0" departPos="4.10" departSpeed="0.00" departDelay="0.40" arrival="49.70" arrivalLane="C3C4_0" arrivalPos="72.80" arrivalSpeed="14.26" duration="49.30" routeLength="368.70" waitingTime="10.90" waitingCount="2" stopTime="0.00" timeLoss="23.46" rerouteNo="0" devices="tripinfo_flow4.0" vType="vtypeauto" speedFactor="1.03" vaporized=""/>
    <tripinfo id="flow4.1" depart="3.30" departLane="C0C1_0" departPos="4.10" departSpeed="0.00" departDelay="2.30" arrival="49.70" arrivalLane="C3C4_1" arrivalPos="72.80" arrivalSpeed="14.25" duration="46.40" routeLength="368.70" waitingTime="7.70" waitingCount="2" stopTime="0.00" timeLoss="20.47" rerouteNo="0" devices="tripinfo_flow4.1" vType="vtypeauto" speedFactor="1.03" vaporized=""/>
    <tripinfo id="flow4.4" depart="11.90" departLane="C0C1_0" departPos="4.10" departSpeed="0.00" departDelay="7.90" arrival="51.40" arrivalLane="C3C4_1" arrivalPos="72.80" arrivalSpeed="13.85" duration="39.50" routeLength="368.70" waitingTime="0.00" waitingCount="0" stopTime="0.00" timeLoss="13.02" rerouteNo="0" devices="tripinfo_flow4.4" vType="vtypeauto" speedFactor="1.01" vaporized=""/>
    <tripinfo id="flow4.3" depart="9.00" departLane="C0C1_0" departPos="4.10" departSpeed="0.00" departDelay="6.00" arrival="51.60" arrivalLane="C3C4_2" arrivalPos="72.80" arrivalSpeed="12.03" duration="42.60" routeLength="368.70" waitingTime="2.50" waitingCount="1" stopTime="0.00" timeLoss="12.10" rerouteNo="0" devices="tripinfo_flow4.3" vType="vtypeauto" speedFactor="0.87" vaporized=""/>
    <tripinfo id="flow4.2" depart="6.10" departLane="C0C1_0" departPos="4.10" departSpeed="0.00" departDelay="4.10" arrival="52.20" arrivalLane="C3C4_0" arrivalPos="72.80" arrivalSpeed="12.99" duration="46.10" routeLength="368.70" waitingTime="0.00" waitingCount="0" stopTime="0.00" timeLoss="17.68" rerouteNo="0" devices="tripinfo_flow4.2" vType="vtypeauto" speedFactor="0.94" vaporized=""/>
    <tripinfo id="flow4.7" depart="20.70" departLane="C0C1_0" departPos="4.10" departSpeed="0.00" departDelay="13.70" arrival="52.90" arrivalLane="C3C4_1" arrivalPos="72.80" arrivalSpeed="15.22" duration="32.20" routeLength="368.70" waitingTime="0.00" waitingCount="0" stopTime="0.00" timeLoss="7.89" rerouteNo="0" devices="tripinfo_flow4.7" vType="vtypeauto" speedFactor="1.10" vaporized=""/>
    <tripinfo id="flow4.6" depart="17.80" departLane="C0C1_0" departPos="4.10" departSpeed="0.00" departDelay="11.80" arrival="53.10" arrivalLane="C3C4_2" arrivalPos="72.80" arrivalSpeed="13.74" duration="35.30" routeLength="368.70" waitingTime="0.00" waitingCount="0" stopTime="0.00" timeLoss="8.64" rerouteNo="0" devices="tripinfo_flow4.6" vType="vtypeauto" speedFactor="1.00" vaporized=""/>
    <tripinfo id="flow4.5" depart="14.80" departLane="C0C1_0" departPos="4.10" departSpeed="0.00" departDelay="9.80" arrival="54.20" arrivalLane="C3C4_0" arrivalPos="72.80" arrivalSpeed="12.51" duration="39.40" routeLength="368.70" waitingTime="0.00" waitingCount="0" stopTime="0.00" timeLoss="9.86" rerouteNo="0" devices="tripinfo_flow4.5" vType="vtypeauto" speedFactor="0.90" vaporized=""/>
    <tripinfo id="flow4.8" depart="23.60" departLane="C0C1_0" departPos="4.10" departSpeed="0.00" departDelay="15.60" arrival="55.70" arrivalLane="C3C4_0" arrivalPos="72.80" arrivalSpeed="14.91" duration="32.10" routeLength="368.70" waitingTime="0.00" waitingCount="0" stopTime="0.00" timeLoss="7.51" rerouteNo="0" devices="tripinfo_flow4.8" vType="vtypeauto" speedFactor="1.08" vaporized=""/>
    <tripinfo id="flow1.0" depart="0.00" departLane="A3B3_0" departPos="4.10" departSpeed="0.00" departDelay="0.00" arrival="79.90" arrivalLane="D3E3_0" arrivalPos="72.80" arrivalSpeed="12.99" duration="79.90" routeLength="368.70" waitingTime="40.10" waitingCount="2" stopTime="0.00" timeLoss="51.57" rerouteNo="0" devices="tripinfo_flow1.0" vType="vtypeauto" speedFactor="0.94" vaporized=""/>
    <tripinfo id="flow1.3" depart="8.40" departLane="A3B3_0" departPos="4.10" departSpeed="0.00" departDelay="5.40" arrival="79.90" arrivalLane="D3E3_2" arrivalPos="72.80" arrivalSpeed="13.51" duration="71.50" routeLength="368.70" waitingTime="35.50" waitingCount="1" stopTime="0.00" timeLoss="44.19" rerouteNo="0" devices="tripinfo_flow1.3" vType="vtypeauto" speedFactor="0.97" vaporized=""/>
    <tripinfo id="flow1.1" depart="2.80" departLane="A3B3_0" departPos="4.10" departSpeed="0.00" departDelay="1.80" arrival="80.00" arrivalLane="D3E3_1" arrivalPos="72.80" arrivalSpeed="12.95" duration="77.20" routeLength="368.70" waitingTime="36.90" waitingCount="2" stopTime="0.00" timeLoss="48.82" rerouteNo="0" devices="tripinfo_flow1.1" vType="vtypeauto" speedFactor="0.94" vaporized=""/>
    <tripinfo id="flow2.0" depart="0.00" departLane="A0A1_0" departPos="4.10" departSpeed="0.00" departDelay="0.00" arrival="80.90" arrivalLane="C3D3_0" arrivalPos="72.80" arrivalSpeed="11.71" duration="80.90" routeLength="512.81" waitingTime="22.10" waitingCount="2" stopTime="0.00" timeLoss="41.07" rerouteNo="0" devices="tripinfo_flow2.0" vType="vtypeauto" speedFactor="1.01" vaporized=""/>
    <tripinfo id="flow1.2" depart="5.60" departLane="A3B3_0" departPos="4.10" departSpeed="0.00" departDelay="3.60" arrival="81.10" arrivalLane="D3E3_0" arrivalPos="72.80" arrivalSpeed="13.99" duration="75.50" routeLength="368.70" waitingTime="28.90" waitingCount="1" stopTime="0.00" timeLoss="47.52" rerouteNo="0" devices="tripinfo_flow1.2" vType="vtypeauto@flow1.2" speedFactor="1.01" vaporized=""/>
    <tripinfo id="flow1.5" depart="14.00" departLane="A3B3_0" departPos="4.10" departSpeed="0.00" departDelay="9.00" arrival="81.20" arrivalLane="D3E3_1" arrivalPos="72.80" arrivalSpeed="13.96" duration="67.20" routeLength="368.70" waitingTime="26.60" waitingCount="1" stopTime="0.00" timeLoss="40.14" rerouteNo="0" devices="tripinfo_flow1.5" vType="vtypeauto@flow1.5" speedFactor="1.01" vaporized=""/>
    <tripinfo id="flow1.4" depart="11.20" departLane="A3B3_0" departPos="4.10" departSpeed="0.00" departDelay="7.20" arrival="81.50" arrivalLane="D3E3_2" arrivalPos="72.80" arrivalSpeed="12.92" duration="70.30" routeLength="368.70" waitingTime="29.30" waitingCount="1" stopTime="0.00" timeLoss="41.78" rerouteNo="0" devices="tripinfo_flow1.4" vType="vtypeauto" speedFactor="0.93" vaporized=""/>
    <tripinfo id="flow2.1" depart="2.80" departLane="A0A1_0" departPos="4.10" departSpeed="0.00" departDelay="1.80" arrival="82.10" arrivalLane="C3D3_0" arrivalPos="72.80" arrivalSpeed="12.99" duration="79.30" routeLength="512.81" waitingTime="7.10" waitingCount="1" stopTime="0.00" timeLoss="33.40" rerouteNo="0" devices="tripinfo_flow2.1" vType="vtypeauto@flow2.1" speedFactor="1.01" vaporized=""/>
    <tripinfo id="flow1.6" depart="16.70" departLane="A3B3_0" departPos="4.10" departSpeed="0.00" departDelay="10.70" arrival="82.30" arrivalLane="D3E3_0" arrivalPos="72.80" arrivalSpeed="13.90" duration="65.60" routeLength="368.70" waitingTime="25.50" waitingCount="1" stopTime="0.00" timeLoss="39.77" rerouteNo="0" devices="tripinfo_flow1.6" vType="vtypeauto@flow1.6" speedFactor="1.01" vaporized=""/>
    <tripinfo id="flow1.8" depart="22.20" departLane="A3B3_0" departPos="4.10" departSpeed="0.00" departDelay="14.20" arrival="82.40" arrivalLane="D3E3_1" arrivalPos="72.80" arrivalSpeed="13.97" duration="60.20" routeLength="368.70" waitingTime="15.90" waitingCount="2" stopTime="0.00" timeLoss="35.93" rerouteNo="0" devices="tripinfo_flow1.8" vType="vtypeauto@flow1.8" speedFactor="1.01" vaporized=""/>
    <tripinfo id="flow1.10" depart="27.80" departLane="A3B3_0" departPos="4.10" departSpeed="0.00" departDelay="17.80" arrival="83.10" arrivalLane="D3E3_2" arrivalPos="72.80" arrivalSpeed="13.39" duration="55.30" routeLength="368.70" waitingTime="10.40" waitingCount="2" stopTime="0.00" timeLoss="27.94" rerouteNo="0" devices="tripinfo_flow1.10" vType="vtypeauto" speedFactor="0.97" vaporized=""/>
    <tripinfo id="flow2.2" depart="5.50" departLane="A0A1_0" departPos="4.10" departSpeed="0.00" departDelay="3.50" arrival="83.20" arrivalLane="C3D3_0" arrivalPos="72.80" arrivalSpeed="13.73" duration="77.70" routeLength="512.81" waitingTime="4.70" waitingCount="1" stopTime="0.00" timeLoss="32.89" rerouteNo="0" devices="tripinfo_flow2.2" vType="vtypeauto@flow2.2" speedFactor="1.01" vaporized=""/>
    <tripinfo id="flow1.7" depart="19.50" departLane="A3B3_0" departPos="4.10" departSpeed="0.00" departDelay="12.50" arrival="83.50" arrivalLane="D3E3_0" arrivalPos="72.80" arrivalSpeed="13.89" duration="64.00" routeLength="368.70" waitingTime="18.20" waitingCount="2" stopTime="0.00" timeLoss="34.55" rerouteNo="0" devices="tripinfo_flow1.7" vType="vtypeauto@flow1.7" speedFactor="1.01" vaporized=""/>
    <tripinfo id="flow1.11" depart="30.60" departLane="A3B3_0" departPos="4.10" departSpeed="0.00" departDelay="19.60" arrival="83.60" arrivalLane="D3E3_1" arrivalPos="72.80" arrivalSpeed="13.94" duration="53.00" routeLength="368.70" waitingTime="2.80" waitingCount="2" stopTime="0.00" timeLoss="26.62" rerouteNo="0" devices="tripinfo_flow1.11" vType="vtypeauto@flow1.11" speedFactor="1.01" vaporized=""/>
    <tripinfo id="flow2.3" depart="8.30" departLane="A0A1_0" departPos="4.10" departSpeed="0.00" departDelay="5.30" arrival="84.30" arrivalLane="C3D3_0" arrivalPos="72.80" arrivalSpeed="13.96" duration="76.00" routeLength="512.81" waitingTime="2.70" waitingCount="1" stopTime="0.00" timeLoss="31.72" rerouteNo="0" devices="tripinfo_flow2.3" vType="vtypeauto@flow2.3" speedFactor="1.01" vaporized=""/>
    <tripinfo id="flow1.14" depart="38.90" departLane="A3B3_0" departPos="4.10" departSpeed="0.00" departDelay="24.90" arrival="84.50" arrivalLane="D3E3_2" arrivalPos="72.80" arrivalSpeed="15.16" duration="45.60" routeLength="368.70" waitingTime="0.90" waitingCount="1" stopTime="0.00" timeLoss="21.38" rerouteNo="0" devices="tripinfo_flow1.14" vType="vtypeauto" speedFactor="1.10" vaporized=""/>
    <tripinfo id="flow1.9" depart="25.00" departLane="A3B3_0" departPos="4.10" departSpeed="0.00" departDelay="16.00" arrival="84.80" arrivalLane="D3E3_0" arrivalPos="72.80" arrivalSpeed="13.90" duration="59.80" routeLength="368.70" waitingTime="8.70" waitingCount="2" stopTime="0.00" timeLoss="32.54" rerouteNo="0" devices="tripinfo_flow1.9" vType="vtypeauto@flow1.9" speedFactor="1.01" vaporized=""/>
    <tripinfo id="flow2.5" depart="13.90" departLane="A0A1_0" departPos="4.10" departSpeed="0.00" departDelay="8.90" arrival="85.70" arrivalLane="C3D3_0" arrivalPos="72.80" arrivalSpeed="15.53" duration="71.80" routeLength="512.81" waitingTime="2.70" waitingCount="1" stopTime="0.00" timeLoss="37.56" rerouteNo="0" devices="tripinfo_flow2.5" vType="vtypeauto" speedFactor="1.18" vaporized=""/>
    <tripinfo id="flow1.13" depart="36.20" departLane="A3B3_0" departPos="4.10" departSpeed="0.00" departDelay="23.20" arrival="85.80" arrivalLane="D3E3_1" arrivalPos="72.80" arrivalSpeed="11.55" duration="49.60" routeLength="368.70" waitingTime="0.00" waitingCount="0" stopTime="0.00" timeLoss="17.68" rerouteNo="0" devices="tripinfo_flow1.13" vType="vtypeauto" speedFactor="0.83" vaporized=""/>
    <tripinfo id="flow1.12" depart="33.40" departLane="A3B3_0" departPos="4.10" departSpeed="0.00" departDelay="21.40" arrival="86.00" arrivalLane="D3E3_0" arrivalPos="72.80" arrivalSpeed="13.88" duration="52.60" routeLength="368.70" waitingTime="0.70" waitingCount="1" stopTime="0.00" timeLoss="25.86" rerouteNo="0" devices="tripinfo_flow1.12" vType="vtypeauto@flow1.12" speedFactor="1.01" vaporized=""/>
    <tripinfo id="flow1.16" depart="44.50" departLane="A3B3_0" departPos="4.10" departSpeed="0.00" departDelay="28.50" arrival="86.10" arrivalLane="D3E3_2" arrivalPos="72.80" arrivalSpeed="13.96" duration="41.60" routeLength="368.70" waitingTime="0.00" waitingCount="0" stopTime="0.00" timeLoss="15.21" rerouteNo="0" devices="tripinfo_flow1.16" vType="vtypeauto" speedFactor="1.01" vaporized=""/>
    <tripinfo id="flow2.4" depart="11.00" departLane="A0A1_0" departPos="4.10" departSpeed="0.00" departDelay="7.00" arrival="87.00" arrivalLane="C3D3_0" arrivalPos="72.80" arrivalSpeed="16.27" duration="76.00" routeLength="512.81" waitingTime="6.20" waitingCount="1" stopTime="0.00" timeLoss="41.82" rerouteNo="0" devices="tripinfo_flow2.4" vType="vtypeauto" speedFactor="1.18" vaporized=""/>
    <tripinfo id="flow1.15" depart="41.70" departLane="A3B3_0" departPos="4.10" departSpeed="0.00" departDelay="26.70" arrival="87.30" arrivalLane="D3E3_1" arrivalPos="72.80" arrivalSpeed="14.02" duration="45.60" routeLength="368.70" waitingTime="0.00" waitingCount="0" stopTime="0.00" timeLoss="19.39" rerouteNo="0" devices="tripinfo_flow1.15" vType="vtypeauto" speedFactor="1.01" vaporized=""/>
    <tripinfo id="flow1.17" depart="47.30" departLane="A3B3_0" departPos="4.10" departSpeed="0.00" departDelay="30.30" arrival="87.70" arrivalLane="D3E3_0" arrivalPos="72.80" arrivalSpeed="12.99" duration="40.40" routeLength="368.70" waitingTime="0.00" waitingCount="0" stopTime="0.00" timeLoss="12.12" rerouteNo="0" devices="tripinfo_flow1.17" vType="vtypeauto" speedFactor="0.94" vaporized=""/>
    <tripinfo id="flow2.7" depart="19.50" departLane="A0A1_0" departPos="4.10" departSpeed="0.00" departDelay="12.50" arrival="88.30" arrivalLane="C3D3_0" arrivalPos="72.80" arrivalSpeed="16.23" duration="68.80" routeLength="512.81" waitingTime="0.40" waitingCount="2" stopTime="0.00" timeLoss="34.30" rerouteNo="0" devices="tripinfo_flow2.7" vType="vtypeauto" speedFactor="1.17" vaporized=""/>
    <tripinfo id="flow2.10" depart="27.80" departLane="A0A1_0" departPos="4.10" departSpeed="0.00" departDelay="17.80" arrival="91.50" arrivalLane="C3D3_0" arrivalPos="72.80" arrivalSpeed="13.05" duration="63.70" routeLength="512.81" waitingTime="0.60" waitingCount="1" stopTime="0.00" timeLoss="20.77" rerouteNo="0" devices="tripinfo_flow2.10" vType="vtypeauto" speedFactor="0.94" vaporized=""/>
    <tripinfo id="flow2.6" depart="16.70" departLane="A0A1_0" departPos="4.10" departSpeed="0.00" departDelay="10.70" arrival="93.20" arrivalLane="C3D3_0" arrivalPos="72.80" arrivalSpeed="14.37" duration="76.50" routeLength="512.81" waitingTime="2.70" waitingCount="7" stopTime="0.00" timeLoss="37.84" rerouteNo="0" devices="tripinfo_flow2.6" vType="vtypeauto" speedFactor="1.04" vaporized=""/>
    <tripinfo id="flow2.15" depart="41.80" departLane="A0A1_0" departPos="4.10" departSpeed="0.00" departDelay="26.80" arrival="95.10" arrivalLane="C3D3_0" arrivalPos="72.80" arrivalSpeed="14.30" duration="53.30" routeLength="512.81" waitingTime="1.20" waitingCount="3" stopTime="0.00" timeLoss="14.27" rerouteNo="0" devices="tripinfo_flow2.15" vType="vtypeauto" speedFactor="1.03" vaporized=""/>
    <tripinfo id="flow2.12" depart="33.40" departLane="A0A1_0" departPos="4.10" departSpeed="0.00" departDelay="21.40" arrival="97.30" arrivalLane="C3D3_0" arrivalPos="72.80" arrivalSpeed="13.89" duration="63.90" routeLength="512.81" waitingTime="0.00" waitingCount="0" stopTime="0.00" timeLoss="23.61" rerouteNo="0" devices="tripinfo_flow2.12" vType="vtypeauto" speedFactor="1.00" vaporized=""/>
    <tripinfo id="flow6.4" depart="11.30" departLane="D4D3_0" departPos="4.10" departSpeed="0.00" departDelay="7.30" arrival="98.40" arrivalLane="D1D0_2" arrivalPos="72.80" arrivalSpeed="13.78" duration="87.10" routeLength="368.70" waitingTime="39.70" waitingCount="2" stopTime="0.00" timeLoss="60.37" rerouteNo="0" devices="tripinfo_flow6.4" vType="vtypeauto" speedFactor="0.99" vaporized=""/>
    <tripinfo id="flow2.11" depart="30.60" departLane="A0A1_0" departPos="4.10" departSpeed="0.00" departDelay="19.60" arrival="99.50" arrivalLane="C3D3_0" arrivalPos="72.80" arrivalSpeed="15.09" duration="68.90" routeLength="512.81" waitingTime="0.10" waitingCount="1" stopTime="0.00" timeLoss="31.74" rerouteNo="0" devices="tripinfo_flow2.11" vType="vtypeauto" speedFactor="1.09" vaporized=""/>
    <tripinfo id="flow6.9" depart="25.50" departLane="D4D3_0" departPos="4.10" departSpeed="0.00" departDelay="16.50" arrival="100.70" arrivalLane="D1D0_2" arrivalPos="72.80" arrivalSpeed="14.14" duration="75.20" routeLength="368.70" waitingTime="32.70" waitingCount="2" stopTime="0.00" timeLoss="49.23" rerouteNo="0" devices="tripinfo_flow6.9" vType="vtypeauto" speedFactor="1.02" vaporized=""/>
    <tripinfo id="flow2.8" depart="22.20" departLane="A0A1_0" departPos="4.10" departSpeed="0.00" departDelay="14.20" arrival="101.50" arrivalLane="C3D3_0" arrivalPos="72.80" arrivalSpeed="14.17" duration="79.30" routeLength="512.81" waitingTime="0.00" waitingCount="0" stopTime="0.00" timeLoss="39.89" rerouteNo="0" devices="tripinfo_flow2.8" vType="vtypeauto" speedFactor="1.02" vaporized=""/>
    <tripinfo id="flow6.12" depart="33.90" departLane="D4D3_0" departPos="4.10" departSpeed="0.00" departDelay="21.90" arrival="102.30" arrivalLane="D1D0_2" arrivalPos="72.80" arrivalSpeed="14.09" duration="68.40" routeLength="368.70" waitingTime="21.90" waitingCount="2" stopTime="0.00" timeLoss="42.29" rerouteNo="0" devices="tripinfo_flow6.12" vType="vtypeauto" speedFactor="1.02" vaporized=""/>
    <tripinfo id="flow2.9" depart="25.00" departLane="A0A1_0" departPos="4.10" departSpeed="0.00" departDelay="16.00" arrival="104.50" arrivalLane="C3D3_0" arrivalPos="72.80" arrivalSpeed="12.24" duration="79.50" routeLength="512.81" waitingTime="0.00" waitingCount="0" stopTime="0.00" timeLoss="33.92" rerouteNo="0" devices="tripinfo_flow2.9" vType="vtypeauto" speedFactor="0.88" vaporized=""/>
    <tripinfo id="flow6.15" depart="42.30" departLane="D4D3_0" departPos="4.10" departSpeed="0.00" departDelay="27.30" arrival="105.70" arrivalLane="D1D0_2" arrivalPos="72.80" arrivalSpeed="12.03" duration="63.40" routeLength="368.70" waitingTime="12.40" waitingCount="2" stopTime="0.00" timeLoss="32.73" rerouteNo="0" devices="tripinfo_flow6.15" vType="vtypeauto" speedFactor="0.87" vaporized=""/>
    <tripinfo id="flow6.3" depart="8.40" departLane="D4D3_0" departPos="4.10" departSpeed="0.00" departDelay="5.40" arrival="106.50" arrivalLane="D1D0_1" arrivalPos="72.80" arrivalSpeed="13.15" duration="98.10" routeLength="368.70" waitingTime="54.60" waitingCount="2" stopTime="0.00" timeLoss="70.05" rerouteNo="0" devices="tripinfo_flow6.3" vType="vtypeauto" speedFactor="0.95" vaporized=""/>
    <tripinfo id="flow2.13" depart="36.20" departLane="A0A1_0" departPos="4.10" departSpeed="0.00" departDelay="23.20" arrival="106.70" arrivalLane="C3D3_0" arrivalPos="72.80" arrivalSpeed="12.78" duration="70.50" routeLength="512.81" waitingTime="0.10" waitingCount="1" stopTime="0.00" timeLoss="26.68" rerouteNo="0" devices="tripinfo_flow2.13" vType="vtypeauto" speedFactor="0.92" vaporized=""/>
    <tripinfo id="flow6.18" depart="50.60" departLane="D4D3_0" departPos="4.10" departSpeed="0.00" departDelay="32.60" arrival="107.30" arrivalLane="D1D0_2" arrivalPos="72.80" arrivalSpeed="13.21" duration="56.70" routeLength="368.70" waitingTime="10.00" waitingCount="1" stopTime="0.00" timeLoss="28.98" rerouteNo="0" devices="tripinfo_flow6.18" vType="vtypeauto" speedFactor="0.96" vaporized=""/>
    <tripinfo id="flow6.2" depart="5.60" departLane="D4D3_0" departPos="4.10" departSpeed="0.00" departDelay="3.60" arrival="107.70" arrivalLane="D1D0_1" arrivalPos="72.80" arrivalSpeed="13.98" duration="102.10" routeLength="368.70" waitingTime="48.20" waitingCount="2" stopTime="0.00" timeLoss="75.85" rerouteNo="0" devices="tripinfo_flow6.2" vType="vtypeauto@flow6.2" speedFactor="1.01" vaporized=""/>
    <tripinfo id="flow2.14" depart="39.00" departLane="A0A1_0" departPos="4.10" departSpeed="0.00" departDelay="25.00" arrival="108.30" arrivalLane="C3D3_0" arrivalPos="72.80" arrivalSpeed="14.78" duration="69.30" routeLength="512.81" waitingTime="0.00" waitingCount="0" stopTime="0.00" timeLoss="31.38" rerouteNo="0" devices="tripinfo_flow2.14" vType="vtypeauto" speedFactor="1.06" vaporized=""/>
    <tripinfo id="flow6.19" depart="53.30" departLane="D4D3_0" departPos="4.10" departSpeed="0.00" departDelay="34.30" arrival="108.80" arrivalLane="D1D0_2" arrivalPos="72.80" arrivalSpeed="13.20" duration="55.50" routeLength="368.70" waitingTime="9.00" waitingCount="1" stopTime="0.00" timeLoss="27.66" rerouteNo="0" devices="tripinfo_flow6.19" vType="vtypeauto" speedFactor="0.95" vaporized=""/>
    <tripinfo id="flow6.1" depart="2.80" departLane="D4D3_0" departPos="4.10" departSpeed="0.00" departDelay="1.80" arrival="109.20" arrivalLane="D1D0_1" arrivalPos="72.80" arrivalSpeed="15.48" duration="106.40" routeLength="368.70" waitingTime="66.60" waitingCount="2" stopTime="0.00" timeLoss="82.67" rerouteNo="0" devices="tripinfo_flow6.1" vType="vtypeauto" speedFactor="1.12" vaporized=""/>
    <tripinfo id="flow2.18" depart="50.20" departLane="A0A1_0" departPos="4.10" departSpeed="0.00" departDelay="32.20" arrival="110.00" arrivalLane="C3D3_0" arrivalPos="72.80" arrivalSpeed="15.48" duration="59.80" routeLength="512.81" waitingTime="0.00" waitingCount="0" stopTime="0.00" timeLoss="23.79" rerouteNo="0" devices="tripinfo_flow2.18" vType="vtypeauto" speedFactor="1.12" vaporized=""/>
    <tripinfo id="flow6.5" depart="14.20" departLane="D4D3_0" departPos="4.10" departSpeed="0.00" departDelay="9.20" arrival="110.10" arrivalLane="D1D0_2" arrivalPos="72.80" arrivalSpeed="13.90" duration="95.90" routeLength="368.70" waitingTime="51.80" waitingCount="2" stopTime="0.00" timeLoss="68.89" rerouteNo="0" devices="tripinfo_flow6.5" vType="vtypeauto@flow6.5" speedFactor="1.01" vaporized=""/>
    <tripinfo id="flow0.7" depart="11.80" departLane="B4B3_0" departPos="4.10" departSpeed="0.00" departDelay="4.80" arrival="110.40" arrivalLane="B3A3_2" arrivalPos="72.80" arrivalSpeed="11.79" duration="98.60" routeLength="560.63" waitingTime="38.70" waitingCount="2" stopTime="0.00" timeLoss="48.99" rerouteNo="0" devices="tripinfo_flow0.7" vType="vtypeauto" speedFactor="0.85" vaporized=""/>
    <tripinfo id="flow6.7" depart="19.90" departLane="D4D3_0" departPos="4.10" departSpeed="0.00" departDelay="12.90" arrival="110.50" arrivalLane="D1D0_1" arrivalPos="72.80" arrivalSpeed="13.97" duration="90.60" routeLength="368.70" waitingTime="45.20" waitingCount="2" stopTime="0.00" timeLoss="64.10" rerouteNo="0" devices="tripinfo_flow6.7" vType="vtypeauto@flow6.7" speedFactor="1.01" vaporized=""/>
    <tripinfo id="flow6.10" depart="28.30" departLane="D4D3_0" departPos="4.10" departSpeed="0.00" departDelay="18.30" arrival="111.30" arrivalLane="D1D0_2" arrivalPos="72.80" arrivalSpeed="13.94" duration="83.00" routeLength="368.70" waitingTime="32.20" waitingCount="3" stopTime="0.00" timeLoss="56.90" rerouteNo="0" devices="tripinfo_flow6.10" vType="vtypeauto@flow6.10" speedFactor="1.01" vaporized=""/>
    <tripinfo id="flow0.0" depart="0.00" departLane="B4B3_0" departPos="4.10" departSpeed="0.00" departDelay="0.00" arrival="111.90" arrivalLane="B3A3_2" arrivalPos="72.80" arrivalSpeed="14.45" duration="111.90" routeLength="560.63" waitingTime="52.20" waitingCount="2" stopTime="0.00" timeLoss="72.15" rerouteNo="0" devices="tripinfo_flow0.0" vType="vtypeauto" speedFactor="1.06" vaporized=""/>
    <tripinfo id="flow2.16" depart="44.60" departLane="A0A1_0" departPos="4.10" departSpeed="0.00" departDelay="28.60" arrival="112.20" arrivalLane="C3D3_0" arrivalPos="72.80" arrivalSpeed="15.23" duration="67.60" routeLength="512.81" waitingTime="0.00" waitingCount="0" stopTime="0.00" timeLoss="30.70" rerouteNo="0" devices="tripinfo_flow2.16" vType="vtypeauto" speedFactor="1.10" vaporized=""/>
    <tripinfo id="flow6.0" depart="0.00" departLane="D4D3_0" departPos="4.10" departSpeed="0.00" departDelay="0.00" arrival="112.30" arrivalLane="D1D0_0" arrivalPos="72.80" arrivalSpeed="14.51" duration="112.30" routeLength="368.70" waitingTime="63.50" waitingCount="2" stopTime="0.00" timeLoss="86.83" rerouteNo="0" devices="tripinfo_flow6.0" vType="vtypeauto" speedFactor="1.05" vaporized=""/>
    <tripinfo id="flow6.13" depart="36.70" departLane="D4D3_0" departPos="4.10" departSpeed="0.00" departDelay="23.70" arrival="112.70" arrivalLane="D1D0_1" arrivalPos="72.80" arrivalSpeed="12.58" duration="76.00" routeLength="368.70" waitingTime="21.30" waitingCount="3" stopTime="0.00" timeLoss="46.68" rerouteNo="0" devices="tripinfo_flow6.13" vType="vtypeauto" speedFactor="0.91" vaporized=""/>
    <tripinfo id="flow6.20" depart="56.10" departLane="D4D3_0" departPos="4.10" departSpeed="0.00" departDelay="36.10" arrival="113.30" arrivalLane="D1D0_2" arrivalPos="72.80" arrivalSpeed="12.31" duration="57.20" routeLength="368.70" waitingTime="9.30" waitingCount="1" stopTime="0.00" timeLoss="27.26" rerouteNo="0" devices="tripinfo_flow6.20" vType="vtypeauto" speedFactor="0.89" vaporized=""/>
    <tripinfo id="flow6.6" depart="17.00" departLane="D4D3_0" departPos="4.10" departSpeed="0.00" departDelay="11.00" arrival="113.60" arrivalLane="D1D0_0" arrivalPos="72.80" arrivalSpeed="13.89" duration="96.60" routeLength="368.70" waitingTime="41.60" waitingCount="2" stopTime="0.00" timeLoss="68.57" rerouteNo="0" devices="tripinfo_flow6.6" vType="vtypeauto@flow6.6" speedFactor="1.01" vaporized=""/>
    <tripinfo id="flow6.16" depart="45.00" departLane="D4D3_0" departPos="4.10" departSpeed="0.00" departDelay="29.00" arrival="114.20" arrivalLane="D1D0_1" arrivalPos="72.80" arrivalSpeed="13.68" duration="69.20" routeLength="368.70" waitingTime="12.40" waitingCount="2" stopTime="0.00" timeLoss="42.43" rerouteNo="0" devices="tripinfo_flow6.16" vType="vtypeauto" speedFactor="0.99" vaporized=""/>
    <tripinfo id="flow6.8" depart="22.70" departLane="D4D3_0" departPos="4.10" departSpeed="0.00" departDelay="14.70" arrival="114.80" arrivalLane="D1D0_0" arrivalPos="72.80" arrivalSpeed="13.95" duration="92.10" routeLength="368.70" waitingTime="34.40" waitingCount="2" stopTime="0.00" timeLoss="65.84" rerouteNo="0" devices="tripinfo_flow6.8" vType="vtypeauto@flow6.8" speedFactor="1.01" vaporized=""/>
    <tripinfo id="flow6.17" depart="47.80" departLane="D4D3_0" departPos="4.10" departSpeed="0.00" departDelay="30.80" arrival="115.70" arrivalLane="D1D0_1" arrivalPos="72.80" arrivalSpeed="15.91" duration="67.90" routeLength="368.70" waitingTime="10.90" waitingCount="1" stopTime="0.00" timeLoss="44.80" rerouteNo="0" devices="tripinfo_flow6.17" vType="vtypeauto" speedFactor="1.15" vaporized=""/>
    <tripinfo id="flow6.11" depart="31.10" departLane="D4D3_0" departPos="4.10" departSpeed="0.00" departDelay="20.10" arrival="116.50" arrivalLane="D1D0_0" arrivalPos="72.80" arrivalSpeed="13.33" duration="85.40" routeLength="368.70" waitingTime="25.60" waitingCount="2" stopTime="0.00" timeLoss="57.88" rerouteNo="0" devices="tripinfo_flow6.11" vType="vtypeauto" speedFactor="0.97" vaporized=""/>
    <tripinfo id="flow6.14" depart="39.50" departLane="D4D3_0" departPos="4.10" departSpeed="0.00" departDelay="25.50" arrival="117.80" arrivalLane="D1D0_1" arrivalPos="72.80" arrivalSpeed="12.38" duration="78.30" routeLength="368.70" waitingTime="17.00" waitingCount="2" stopTime="0.00" timeLoss="48.56" rerouteNo="0" devices="tripinfo_flow6.14" vType="vtypeauto" speedFactor="0.89" vaporized=""/>
    <tripinfo id="flow0.8" depart="14.00" departLane="B4B3_0" departPos="4.10" departSpeed="0.00" departDelay="6.00" arrival="119.30" arrivalLane="B3A3_2" arrivalPos="72.80" arrivalSpeed="12.37" duration="105.30" routeLength="560.63" waitingTime="32.20" waitingCount="3" stopTime="0.00" timeLoss="58.36" rerouteNo="0" devices="tripinfo_flow0.8" vType="vtypeauto" speedFactor="0.90" vaporized=""/>
    <tripinfo id="flow4.12" depart="35.20" departLane="C0C1_0" departPos="4.10" departSpeed="0.00" departDelay="23.20" arrival="146.70" arrivalLane="C3C4_2" arrivalPos="72.80" arrivalSpeed="13.93" duration="111.50" routeLength="368.70" waitingTime="71.90" waitingCount="2" stopTime="0.00" timeLoss="85.14" rerouteNo="0" devices="tripinfo_flow4.12" vType="vtypeauto" speedFactor="1.01" vaporized=""/>
    <tripinfo id="flow4.10" depart="29.40" departLane="C0C1_0" departPos="4.10" departSpeed="0.00" departDelay="19.40" arrival="146.90" arrivalLane="C3C4_1" arrivalPos="72.80" arrivalSpeed="13.16" duration="117.50" routeLength="368.70" waitingTime="77.40" waitingCount="2" stopTime="0.00" timeLoss="89.66" rerouteNo="0" devices="tripinfo_flow4.10" vType="vtypeauto" speedFactor="0.96" vaporized=""/>
    <tripinfo id="flow4.9" depart="26.50" departLane="C0C1_0" departPos="4.10" departSpeed="0.00" departDelay="17.50" arrival="147.10" arrivalLane="C3C4_0" arrivalPos="72.80" arrivalSpeed="12.58" duration="120.60" routeLength="368.70" waitingTime="80.40" waitingCount="2" stopTime="0.00" timeLoss="91.57" rerouteNo="0" devices="tripinfo_flow4.9" vType="vtypeauto" speedFactor="0.91" vaporized=""/>