<?xml version="1.0" encoding="UTF-8"?>

<!-- generated on 2024-10-29 12:03:21 by Eclipse SUMO sumo Version 1.20.0
<configuration xmlns:xsi="http://www.w3.org/2001/XMLSchema-instance" xsi:noNamespaceSchemaLocation="http://sumo.dlr.de/xsd/sumoConfiguration.xsd">

    <input>
        <net-file value="./sim_cfg_grid_3_lanes/grid.net.xml"/>
        <route-files value="./sim_cfg_grid_3_lanes/3x1.rou.xml"/>
    </input>

    <output>
        <tripinfo-output value="./sim_cfg_grid_3_lanes/tripinfo-platooning_0.346.xml"/>
    </output>

    <time>
        <begin value="0"/>
        <end value="500"/>
        <step-length value="0.1"/>
    </time>

    <traci_server>
        <remote-port value="49471"/>
    </traci_server>

    <gui_only>
        <gui-settings-file value="./sim_cfg_grid_3_lanes/gui_settings.xml"/>
    </gui_only>

</configuration>
-->

<tripinfos xmlns:xsi="http://www.w3.org/2001/XMLSchema-instance" xsi:noNamespaceSchemaLocation="http://sumo.dlr.de/xsd/tripinfo_file.xsd">
    <tripinfo id="flow1.3" depart="8.40" departLane="A3B3_0" departPos="4.10" departSpeed="0.00" departDelay="5.40" arrival="50.50" arrivalLane="D3E3_2" arrivalPos="72.80" arrivalSpeed="15.10" duration="42.10" routeLength="368.70" waitingTime="7.70" waitingCount="1" stopTime="0.00" timeLoss="17.73" rerouteNo="0" devices="tripinfo_flow1.3" vType="vtypeauto" speedFactor="1.09" vaporized=""/>
    <tripinfo id="flow1.1" depart="2.80" departLane="A3B3_0" departPos="4.10" departSpeed="0.00" departDelay="1.80" arrival="50.60" arrivalLane="D3E3_1" arrivalPos="72.80" arrivalSpeed="14.20" duration="47.80" routeLength="368.70" waitingTime="9.00" waitingCount="2" stopTime="0.00" timeLoss="21.97" rerouteNo="0" devices="tripinfo_flow1.1" vType="vtypeauto" speedFactor="1.03" vaporized=""/>
    <tripinfo id="flow1.0" depart="0.00" departLane="A3B3_0" departPos="4.10" departSpeed="0.00" departDelay="0.00" arrival="51.00" arrivalLane="D3E3_0" arrivalPos="72.80" arrivalSpeed="12.93" duration="51.00" routeLength="368.70" waitingTime="11.20" waitingCount="2" stopTime="0.00" timeLoss="22.64" rerouteNo="0" devices="tripinfo_flow1.0" vType="vtypeauto" speedFactor="0.94" vaporized=""/>
    <tripinfo id="flow1.4" depart="11.20" departLane="A3B3_0" departPos="4.10" departSpeed="0.00" departDelay="7.20" arrival="51.90" arrivalLane="D3E3_2" arrivalPos="72.80" arrivalSpeed="15.56" duration="40.70" routeLength="368.70" waitingTime="2.40" waitingCount="1" stopTime="0.00" timeLoss="17.06" rerouteNo="0" devices="tripinfo_flow1.4" vType="vtypeauto" speedFactor="1.12" vaporized=""/>
    <tripinfo id="flow1.2" depart="5.60" departLane="A3B3_0" departPos="4.10" departSpeed="0.00" departDelay="3.60" arrival="52.70" arrivalLane="D3E3_0" arrivalPos="72.80" arrivalSpeed="12.25" duration="47.10" routeLength="368.70" waitingTime="0.00" waitingCount="0" stopTime="0.00" timeLoss="17.11" rerouteNo="0" devices="tripinfo_flow1.2" vType="vtypeauto" speedFactor="0.89" vaporized=""/>
    <tripinfo id="flow1.5" depart="13.90" departLane="A3B3_0" departPos="4.10" departSpeed="0.00" departDelay="8.90" arrival="52.70" arrivalLane="D3E3_1" arrivalPos="72.80" arrivalSpeed="12.10" duration="38.80" routeLength="368.70" waitingTime="0.00" waitingCount="0" stopTime="0.00" timeLoss="8.57" rerouteNo="0" devices="tripinfo_flow1.5" vType="vtypeauto" speedFactor="0.88" vaporized=""/>
    <tripinfo id="flow1.6" depart="16.60" departLane="A3B3_0" departPos="4.10" departSpeed="0.00" departDelay="10.60" arrival="54.20" arrivalLane="D3E3_0" arrivalPos="72.80" arrivalSpeed="15.11" duration="37.60" routeLength="368.70" waitingTime="0.00" waitingCount="0" stopTime="0.00" timeLoss="14.62" rerouteNo="0" devices="tripinfo_flow1.6" vType="vtypeauto" speedFactor="1.16" vaporized=""/>
    <tripinfo id="flow1.7" depart="19.40" departLane="A3B3_0" departPos="4.10" departSpeed="0.00" departDelay="12.40" arrival="54.20" arrivalLane="D3E3_1" arrivalPos="72.80" arrivalSpeed="13.46" duration="34.80" routeLength="368.70" waitingTime="0.00" waitingCount="0" stopTime="0.00" timeLoss="7.58" rerouteNo="0" devices="tripinfo_flow1.7" vType="vtypeauto" speedFactor="0.97" vaporized=""/>
    <tripinfo id="flow1.9" depart="24.90" departLane="A3B3_0" departPos="4.10" departSpeed="0.00" departDelay="15.90" arrival="64.60" arrivalLane="D3E3_1" arrivalPos="72.80" arrivalSpeed="15.66" duration="39.70" routeLength="368.70" waitingTime="6.20" waitingCount="1" stopTime="0.00" timeLoss="16.17" rerouteNo="0" devices="tripinfo_flow1.9" vType="vtypeauto" speedFactor="1.13" vaporized=""/>
    <tripinfo id="flow1.11" depart="30.40" departLane="A3B3_0" departPos="4.10" departSpeed="0.00" departDelay="19.40" arrival="65.90" arrivalLane="D3E3_2" arrivalPos="72.80" arrivalSpeed="13.75" duration="35.50" routeLength="368.70" waitingTime="0.00" waitingCount="0" stopTime="0.00" timeLoss="8.78" rerouteNo="0" devices="tripinfo_flow1.11" vType="vtypeauto" speedFactor="0.99" vaporized=""/>
    <tripinfo id="flow1.12" depart="33.30" departLane="A3B3_0" departPos="4.10" departSpeed="0.00" departDelay="21.30" arrival="66.00" arrivalLane="D3E3_1" arrivalPos="72.80" arrivalSpeed="16.32" duration="32.70" routeLength="368.70" waitingTime="0.00" waitingCount="0" stopTime="0.00" timeLoss="10.18" rerouteNo="0" devices="tripinfo_flow1.12" vType="vtypeauto" speedFactor="1.18" vaporized=""/>
    <tripinfo id="flow1.8" depart="22.10" departLane="A3B3_0" departPos="4.10" departSpeed="0.00" departDelay="14.10" arrival="67.60" arrivalLane="D3E3_0" arrivalPos="72.80" arrivalSpeed="12.02" duration="45.50" routeLength="368.70" waitingTime="8.00" waitingCount="1" stopTime="0.00" timeLoss="15.06" rerouteNo="0" devices="tripinfo_flow1.8" vType="vtypeauto" speedFactor="0.87" vaporized=""/>
    <tripinfo id="flow1.14" depart="38.90" departLane="A3B3_0" departPos="4.10" departSpeed="0.00" departDelay="24.90" arrival="68.70" arrivalLane="D3E3_1" arrivalPos="72.80" arrivalSpeed="14.35" duration="29.80" routeLength="368.70" waitingTime="0.00" waitingCount="0" stopTime="0.00" timeLoss="4.14" rerouteNo="0" devices="tripinfo_flow1.14" vType="vtypeauto" speedFactor="1.04" vaporized=""/>
    <tripinfo id="flow1.10" depart="27.60" departLane="A3B3_0" departPos="4.10" departSpeed="0.00" departDelay="17.60" arrival="69.10" arrivalLane="D3E3_0" arrivalPos="72.80" arrivalSpeed="15.04" duration="41.50" routeLength="368.70" waitingTime="1.70" waitingCount="1" stopTime="0.00" timeLoss="18.47" rerouteNo="0" devices="tripinfo_flow1.10" vType="vtypeauto" speedFactor="1.15" vaporized=""/>
    <tripinfo id="flow1.13" depart="36.10" departLane="A3B3_0" departPos="4.10" departSpeed="0.00" departDelay="23.10" arrival="70.60" arrivalLane="D3E3_0" arrivalPos="72.80" arrivalSpeed="14.21" duration="34.50" routeLength="368.70" waitingTime="0.00" waitingCount="0" stopTime="0.00" timeLoss="8.69" rerouteNo="0" devices="tripinfo_flow1.13" vType="vtypeauto" speedFactor="1.03" vaporized=""/>
    <tripinfo id="flow1.15" depart="41.70" departLane="A3B3_0" departPos="4.10" departSpeed="0.00" departDelay="26.70" arrival="72.20" arrivalLane="D3E3_0" arrivalPos="72.80" arrivalSpeed="13.80" duration="30.50" routeLength="368.70" waitingTime="0.00" waitingCount="0" stopTime="0.00" timeLoss="3.85" rerouteNo="0" devices="tripinfo_flow1.15" vType="vtypeauto" speedFactor="1.00" vaporized=""/>
    <tripinfo id="flow2.0" depart="0.00" departLane="A0A1_0" departPos="4.10" departSpeed="0.00" departDelay="0.00" arrival="83.60" arrivalLane="C3D3_0" arrivalPos="72.80" arrivalSpeed="8.43" duration="83.60" routeLength="512.81" waitingTime="26.50" waitingCount="2" stopTime="0.00" timeLoss="43.79" rerouteNo="0" devices="tripinfo_flow2.0" vType="vtypeauto" speedFactor="1.01" vaporized=""/>
    <tripinfo id="flow2.1" depart="2.80" departLane="A0A1_0" departPos="4.10" departSpeed="0.00" departDelay="1.80" arrival="83.60" arrivalLane="C3D3_1" arrivalPos="72.80" arrivalSpeed="11.74" duration="80.80" routeLength="512.81" waitingTime="12.00" waitingCount="1" stopTime="0.00" timeLoss="34.51" rerouteNo="0" devices="tripinfo_flow2.1" vType="vtypeauto@flow2.1" speedFactor="1.01" vaporized=""/>
    <tripinfo id="flow2.2" depart="5.50" departLane="A0A1_0" departPos="4.10" departSpeed="0.00" departDelay="3.50" arrival="84.90" arrivalLane="C3D3_0" arrivalPos="72.80" arrivalSpeed="10.33" duration="79.40" routeLength="512.81" waitingTime="9.90" waitingCount="1" stopTime="0.00" timeLoss="37.67" rerouteNo="0" devices="tripinfo_flow2.2" vType="vtypeauto@flow2.2" speedFactor="1.01" vaporized=""/>
    <tripinfo id="flow2.3" depart="8.30" departLane="A0A1_0" departPos="4.10" departSpeed="0.00" departDelay="5.30" arrival="86.10" arrivalLane="C3D3_0" arrivalPos="72.80" arrivalSpeed="11.42" duration="77.80" routeLength="512.81" waitingTime="8.00" waitingCount="1" stopTime="0.00" timeLoss="38.93" rerouteNo="0" devices="tripinfo_flow2.3" vType="vtypeauto@flow2.3" speedFactor="1.01" vaporized=""/>
    <tripinfo id="flow2.4" depart="11.00" departLane="A0A1_0" departPos="4.10" departSpeed="0.00" departDelay="7.00" arrival="87.30" arrivalLane="C3D3_0" arrivalPos="72.80" arrivalSpeed="12.10" duration="76.30" routeLength="512.81" waitingTime="6.30" waitingCount="1" stopTime="0.00" timeLoss="36.40" rerouteNo="0" devices="tripinfo_flow2.4" vType="vtypeauto@flow2.4" speedFactor="1.01" vaporized=""/>
    <tripinfo id="flow2.5" depart="13.80" departLane="A0A1_0" departPos="4.10" departSpeed="0.00" departDelay="8.80" arrival="88.40" arrivalLane="C3D3_0" arrivalPos="72.80" arrivalSpeed="12.62" duration="74.60" routeLength="512.81" waitingTime="4.60" waitingCount="1" stopTime="0.00" timeLoss="35.86" rerouteNo="0" devices="tripinfo_flow2.5" vType="vtypeauto@flow2.5" speedFactor="2.15" vaporized=""/>
    <tripinfo id="flow1.17" depart="47.20" departLane="A3B3_0" departPos="4.10" departSpeed="0.00" departDelay="30.20" arrival="88.70" arrivalLane="D3E3_1" arrivalPos="72.80" arrivalSpeed="14.07" duration="41.50" routeLength="368.70" waitingTime="4.80" waitingCount="1" stopTime="0.00" timeLoss="15.33" rerouteNo="0" devices="tripinfo_flow1.17" vType="vtypeauto" speedFactor="1.02" vaporized=""/>
    <tripinfo id="flow1.16" depart="44.50" departLane="A3B3_0" departPos="4.10" departSpeed="0.00" departDelay="28.50" arrival="89.50" arrivalLane="D3E3_0" arrivalPos="72.80" arrivalSpeed="11.78" duration="45.00" routeLength="368.70" waitingTime="7.20" waitingCount="1" stopTime="0.00" timeLoss="13.71" rerouteNo="0" devices="tripinfo_flow1.16" vType="vtypeauto" speedFactor="0.85" vaporized=""/>
    <tripinfo id="flow2.6" depart="16.50" departLane="A0A1_0" departPos="4.10" departSpeed="0.00" departDelay="10.50" arrival="89.80" arrivalLane="C3D3_0" arrivalPos="72.80" arrivalSpeed="14.07" duration="73.30" routeLength="512.81" waitingTime="8.50" waitingCount="1" stopTime="0.00" timeLoss="33.68" rerouteNo="0" devices="tripinfo_flow2.6" vType="vtypeauto" speedFactor="1.02" vaporized=""/>
    <tripinfo id="flow1.18" depart="50.00" departLane="A3B3_0" departPos="4.10" departSpeed="0.00" departDelay="32.00" arrival="91.00" arrivalLane="D3E3_0" arrivalPos="72.80" arrivalSpeed="13.72" duration="41.00" routeLength="368.70" waitingTime="0.80" waitingCount="1" stopTime="0.00" timeLoss="14.29" rerouteNo="0" devices="tripinfo_flow1.18" vType="vtypeauto" speedFactor="1.00" vaporized=""/>
    <tripinfo id="flow2.9" depart="24.90" departLane="A0A1_0" departPos="4.10" departSpeed="0.00" departDelay="15.90" arrival="91.40" arrivalLane="C3D3_0" arrivalPos="72.80" arrivalSpeed="12.91" duration="66.50" routeLength="512.81" waitingTime="2.10" waitingCount="3" stopTime="0.00" timeLoss="23.15" rerouteNo="0" devices="tripinfo_flow2.9" vType="vtypeauto" speedFactor="0.93" vaporized=""/>
    <tripinfo id="flow2.7" depart="19.30" departLane="A0A1_0" departPos="4.10" departSpeed="0.00" departDelay="12.30" arrival="93.80" arrivalLane="C3D3_0" arrivalPos="72.80" arrivalSpeed="12.25" duration="74.50" routeLength="512.81" waitingTime="5.80" waitingCount="4" stopTime="0.00" timeLoss="29.17" rerouteNo="0" devices="tripinfo_flow2.7" vType="vtypeauto" speedFactor="0.89" vaporized=""/>
    <tripinfo id="flow2.8" depart="22.10" departLane="A0A1_0" departPos="4.10" departSpeed="0.00" departDelay="14.10" arrival="96.10" arrivalLane="C3D3_0" arrivalPos="72.80" arrivalSpeed="12.71" duration="74.00" routeLength="512.81" waitingTime="10.30" waitingCount="1" stopTime="0.00" timeLoss="30.01" rerouteNo="0" devices="tripinfo_flow2.8" vType="vtypeauto" speedFactor="0.92" vaporized=""/>
    <tripinfo id="flow2.11" depart="30.50" departLane="A0A1_0" departPos="4.10" departSpeed="0.00" departDelay="19.50" arrival="97.80" arrivalLane="C3D3_0" arrivalPos="72.80" arrivalSpeed="14.10" duration="67.30" routeLength="512.81" waitingTime="5.70" waitingCount="3" stopTime="0.00" timeLoss="27.74" rerouteNo="0" devices="tripinfo_flow2.11" vType="vtypeauto" speedFactor="1.02" vaporized=""/>
    <tripinfo id="flow2.10" depart="27.70" departLane="A0A1_0" departPos="4.10" departSpeed="0.00" departDelay="17.70" arrival="100.00" arrivalLane="C3D3_0" arrivalPos="72.80" arrivalSpeed="13.90" duration="72.30" routeLength="512.81" waitingTime="7.10" waitingCount="2" stopTime="0.00" timeLoss="32.21" rerouteNo="0" devices="tripinfo_flow2.10" vType="vtypeauto" speedFactor="1.01" vaporized=""/>
    <tripinfo id="flow2.14" depart="38.90" departLane="A0A1_0" departPos="4.10" departSpeed="0.00" departDelay="24.90" arrival="102.20" arrivalLane="C3D3_0" arrivalPos="72.80" arrivalSpeed="14.46" duration="63.30" routeLength="512.81" waitingTime="0.10" waitingCount="1" stopTime="0.00" timeLoss="24.60" rerouteNo="0" devices="tripinfo_flow2.14" vType="vtypeauto" speedFactor="1.04" vaporized=""/>
    <tripinfo id="flow2.13" depart="36.10" departLane="A0A1_0" departPos="4.10" departSpeed="0.00" departDelay="23.10" arrival="104.90" arrivalLane="C3D3_0" arrivalPos="72.80" arrivalSpeed="13.27" duration="68.80" routeLength="512.81" waitingTime="5.70" waitingCount="2" stopTime="0.00" timeLoss="26.57" rerouteNo="0" devices="tripinfo_flow2.13" vType="vtypeauto" speedFactor="0.96" vaporized=""/>
    <tripinfo id="flow2.16" depart="44.40" departLane="A0A1_0" departPos="4.10" departSpeed="0.00" departDelay="28.40" arrival="108.00" arrivalLane="C3D3_0" arrivalPos="72.80" arrivalSpeed="11.85" duration="63.60" routeLength="512.81" waitingTime="0.00" waitingCount="0" stopTime="0.00" timeLoss="16.47" rerouteNo="0" devices="tripinfo_flow2.16" vType="vtypeauto" speedFactor="0.85" vaporized=""/>
    <tripinfo id="flow0.9" depart="17.00" departLane="B4B3_0" departPos="4.10" departSpeed="0.00" departDelay="8.00" arrival="109.40" arrivalLane="B3A3_2" arrivalPos="72.80" arrivalSpeed="13.11" duration="92.40" routeLength="560.63" waitingTime="27.50" waitingCount="3" stopTime="0.00" timeLoss="47.88" rerouteNo="0" devices="tripinfo_flow0.9" vType="vtypeauto" speedFactor="0.95" vaporized=""/>
    <tripinfo id="flow2.17" depart="47.20" departLane="A0A1_0" departPos="4.10" departSpeed="0.00" departDelay="30.20" arrival="109.50" arrivalLane="C3D3_0" arrivalPos="72.80" arrivalSpeed="14.76" duration="62.30" routeLength="512.81" waitingTime="0.00" waitingCount="0" stopTime="0.00" timeLoss="25.44" rerouteNo="0" devices="tripinfo_flow2.17" vType="vtypeauto" speedFactor="1.10" vaporized=""/>
    <tripinfo id="flow2.12" depart="33.30" departLane="A0A1_0" departPos="4.10" departSpeed="0.00" departDelay="21.30" arrival="111.10" arrivalLane="C3D3_0" arrivalPos="72.80" arrivalSpeed="15.23" duration="77.80" routeLength="512.81" waitingTime="7.70" waitingCount="3" stopTime="0.00" timeLoss="41.12" rerouteNo="0" devices="tripinfo_flow2.12" vType="vtypeauto" speedFactor="1.10" vaporized=""/>
    <tripinfo id="flow0.0" depart="0.00" departLane="B4B3_0" departPos="4.10" departSpeed="0.00" departDelay="0.00" arrival="112.80" arrivalLane="B3A3_2" arrivalPos="72.80" arrivalSpeed="14.71" duration="112.80" routeLength="560.63" waitingTime="51.90" waitingCount="2" stopTime="0.00" timeLoss="72.97" rerouteNo="0" devices="tripinfo_flow0.0" vType="vtypeauto" speedFactor="1.06" vaporized=""/>
    <tripinfo id="flow2.15" depart="41.60" departLane="A0A1_0" departPos="4.10" departSpeed="0.00" departDelay="26.60" arrival="114.30" arrivalLane="C3D3_0" arrivalPos="72.80" arrivalSpeed="12.50" duration="72.70" routeLength="512.81" waitingTime="5.60" waitingCount="1" stopTime="0.00" timeLoss="27.92" rerouteNo="0" devices="tripinfo_flow2.15" vType="vtypeauto" speedFactor="0.90" vaporized=""/>
    <tripinfo id="flow1.20" depart="55.60" departLane="A3B3_0" departPos="4.10" departSpeed="0.00" departDelay="35.60" arrival="137.30" arrivalLane="D3E3_1" arrivalPos="72.80" arrivalSpeed="15.47" duration="81.70" routeLength="368.70" waitingTime="43.10" waitingCount="2" stopTime="0.00" timeLoss="57.97" rerouteNo="0" devices="tripinfo_flow1.20" vType="vtypeauto" speedFactor="1.12" vaporized=""/>
    <tripinfo id="flow1.19" depart="52.80" departLane="A3B3_0" departPos="4.10" departSpeed="0.00" departDelay="33.80" arrival="137.70" arrivalLane="D3E3_0" arrivalPos="72.80" arrivalSpeed="14.20" duration="84.90" routeLength="368.70" waitingTime="45.60" waitingCount="2" stopTime="0.00" timeLoss="58.89" rerouteNo="0" devices="tripinfo_flow1.19" vType="vtypeauto" speedFactor="1.02" vaporized=""/>
    <tripinfo id="flow1.22" depart="61.20" departLane="A3B3_0" departPos="4.10" departSpeed="0.00" departDelay="39.20" arrival="138.10" arrivalLane="D3E3_2" arrivalPos="72.80" arrivalSpeed="12.67" duration="76.90" routeLength="368.70" waitingTime="35.80" waitingCount="2" stopTime="0.00" timeLoss="47.87" rerouteNo="0" devices="tripinfo_flow1.22" vType="vtypeauto" speedFactor="0.91" vaporized=""/>
    <tripinfo id="flow1.23" depart="64.00" departLane="A3B3_0" departPos="4.10" departSpeed="0.00" departDelay="41.00" arrival="139.10" arrivalLane="D3E3_1" arrivalPos="72.80" arrivalSpeed="13.92" duration="75.10" routeLength="368.70" waitingTime="27.20" waitingCount="2" stopTime="0.00" timeLoss="48.74" rerouteNo="0" devices="tripinfo_flow1.23" vType="vtypeauto@flow1.23" speedFactor="1.01" vaporized=""/>
    <tripinfo id="flow1.21" depart="58.40" departLane="A3B3_0" departPos="4.10" departSpeed="0.00" departDelay="37.40" arrival="139.20" arrivalLane="D3E3_0" arrivalPos="72.80" arrivalSpeed="13.92" duration="80.80" routeLength="368.70" waitingTime="32.90" waitingCount="2" stopTime="0.00" timeLoss="54.10" rerouteNo="0" devices="tripinfo_flow1.21" vType="vtypeauto@flow1.21" speedFactor="1.01" vaporized=""/>
    <tripinfo id="flow1.25" depart="69.50" departLane="A3B3_0" departPos="4.10" departSpeed="0.00" departDelay="44.50" arrival="139.60" arrivalLane="D3E3_2" arrivalPos="72.80" arrivalSpeed="14.25" duration="70.10" routeLength="368.70" waitingTime="21.30" waitingCount="2" stopTime="0.00" timeLoss="44.37" rerouteNo="0" devices="tripinfo_flow1.25" vType="vtypeauto" speedFactor="1.03" vaporized=""/>
    <tripinfo id="flow1.26" depart="72.30" departLane="A3B3_0" departPos="4.10" departSpeed="0.00" departDelay="46.30" arrival="140.30" arrivalLane="D3E3_1" arrivalPos="72.80" arrivalSpeed="13.99" duration="68.00" routeLength="368.70" waitingTime="17.80" waitingCount="2" stopTime="0.00" timeLoss="41.90" rerouteNo="0" devices="tripinfo_flow1.26" vType="vtypeauto@flow1.26" speedFactor="1.01" vaporized=""/>
    <tripinfo id="flow1.24" depart="66.80" departLane="A3B3_0" departPos="4.10" departSpeed="0.00" departDelay="42.80" arrival="140.40" arrivalLane="D3E3_0" arrivalPos="72.80" arrivalSpeed="13.94" duration="73.60" routeLength="368.70" waitingTime="23.40" waitingCount="2" stopTime="0.00" timeLoss="47.43" rerouteNo="0" devices="tripinfo_flow1.24" vType="vtypeauto@flow1.24" speedFactor="1.01" vaporized=""/>
    <tripinfo id="flow1.28" depart="77.90" departLane="A3B3_0" departPos="4.10" departSpeed="0.00" departDelay="49.90" arrival="141.20" arrivalLane="D3E3_2" arrivalPos="72.80" arrivalSpeed="13.49" duration="63.30" routeLength="368.70" waitingTime="12.10" waitingCount="2" stopTime="0.00" timeLoss="36.03" rerouteNo="0" devices="tripinfo_flow1.28" vType="vtypeauto" speedFactor="0.98" vaporized=""/>
    <tripinfo id="flow1.29" depart="80.70" departLane="A3B3_0" departPos="4.10" departSpeed="0.00" departDelay="51.70" arrival="141.60" arrivalLane="D3E3_1" arrivalPos="72.80" arrivalSpeed="13.93" duration="60.90" routeLength="368.70" waitingTime="8.80" waitingCount="1" stopTime="0.00" timeLoss="34.47" rerouteNo="0" devices="tripinfo_flow1.29" vType="vtypeauto@flow1.29" speedFactor="1.01" vaporized=""/>
    <tripinfo id="flow1.27" depart="75.10" departLane="A3B3_0" departPos="4.10" departSpeed="0.00" departDelay="48.10" arrival="141.70" arrivalLane="D3E3_0" arrivalPos="72.80" arrivalSpeed="13.97" duration="66.60" routeLength="368.70" waitingTime="14.40" waitingCount="1" stopTime="0.00" timeLoss="40.23" rerouteNo="0" devices="tripinfo_flow1.27" vType="vtypeauto@flow1.27" speedFactor="1.01" vaporized=""/>
    <tripinfo id="flow2.18" depart="50.00" departLane="A0A1_0" departPos="4.10" departSpeed="0.00" departDelay="32.00" arrival="141.80" arrivalLane="C3D3_0" arrivalPos="72.80" arrivalSpeed="12.45" duration="91.80" routeLength="512.81" waitingTime="29.80" waitingCount="2" stopTime="0.00" timeLoss="46.83" rerouteNo="0" devices="tripinfo_flow2.18" vType="vtypeauto" speedFactor="0.90" vaporized=""/>
    <tripinfo id="flow1.31" depart="86.30" departLane="A3B3_0" departPos="4.10" departSpeed="0.00" departDelay="55.30" arrival="142.60" arrivalLane="D3E3_2" arrivalPos="72.80" arrivalSpeed="15.07" duration="56.30" routeLength="368.70" waitingTime="3.90" waitingCount="1" stopTime="0.00" timeLoss="31.95" rerouteNo="0" devices="tripinfo_flow1.31" vType="vtypeauto" speedFactor="1.09" vaporized=""/>
    <tripinfo id="flow1.32" depart="88.70" departLane="A3B3_0" departPos="4.10" departSpeed="0.00" departDelay="56.70" arrival="142.80" arrivalLane="D3E3_1" arrivalPos="72.80" arrivalSpeed="13.91" duration="54.10" routeLength="368.70" waitingTime="1.50" waitingCount="1" stopTime="0.00" timeLoss="27.43" rerouteNo="0" devices="tripinfo_flow1.32" vType="vtypeauto@flow1.32" speedFactor="1.01" vaporized=""/>
    <tripinfo id="flow1.30" depart="83.50" departLane="A3B3_0" departPos="4.10" departSpeed="0.00" departDelay="53.50" arrival="142.90" arrivalLane="D3E3_0" arrivalPos="72.80" arrivalSpeed="13.88" duration="59.40" routeLength="368.70" waitingTime="6.90" waitingCount="1" stopTime="0.00" timeLoss="32.71" rerouteNo="0" devices="tripinfo_flow1.30" vType="vtypeauto@flow1.30" speedFactor="1.01" vaporized=""/>
    <tripinfo id="flow2.25" depart="69.40" departLane="A0A1_0" departPos="4.10" departSpeed="0.00" departDelay="44.40" arrival="144.30" arrivalLane="C3D3_0" arrivalPos="72.80" arrivalSpeed="13.53" duration="74.90" routeLength="512.81" waitingTime="4.00" waitingCount="2" stopTime="0.00" timeLoss="33.81" rerouteNo="0" devices="tripinfo_flow2.25" vType="vtypeauto" speedFactor="0.98" vaporized=""/>
    <tripinfo id="flow1.34" depart="94.30" departLane="A3B3_0" departPos="4.10" departSpeed="0.00" departDelay="60.30" arrival="144.30" arrivalLane="D3E3_2" arrivalPos="72.80" arrivalSpeed="13.16" duration="50.00" routeLength="368.70" waitingTime="0.00" waitingCount="0" stopTime="0.00" timeLoss="22.10" rerouteNo="0" devices="tripinfo_flow1.34" vType="vtypeauto" speedFactor="0.95" vaporized=""/>
    <tripinfo id="flow1.35" depart="96.10" departLane="A3B3_0" departPos="4.10" departSpeed="0.00" departDelay="61.10" arrival="144.30" arrivalLane="D3E3_1" arrivalPos="72.80" arrivalSpeed="13.99" duration="48.20" routeLength="368.70" waitingTime="0.00" waitingCount="0" stopTime="0.00" timeLoss="21.98" rerouteNo="0" devices="tripinfo_flow1.35" vType="vtypeauto" speedFactor="1.01" vaporized=""/>
    <tripinfo id="flow1.33" depart="91.50" departLane="A3B3_0" departPos="4.10" departSpeed="0.00" departDelay="58.50" arrival="144.40" arrivalLane="D3E3_0" arrivalPos="72.80" arrivalSpeed="14.70" duration="52.90" routeLength="368.70" waitingTime="0.00" waitingCount="0" stopTime="0.00" timeLoss="27.91" rerouteNo="0" devices="tripinfo_flow1.33" vType="vtypeauto" speedFactor="1.06" vaporized=""/>
    <tripinfo id="flow1.37" depart="101.10" departLane="A3B3_0" departPos="4.10" departSpeed="0.00" departDelay="64.10" arrival="145.80" arrivalLane="D3E3_2" arrivalPos="72.80" arrivalSpeed="15.20" duration="44.70" routeLength="368.70" waitingTime="0.00" waitingCount="0" stopTime="0.00" timeLoss="20.45" rerouteNo="0" devices="tripinfo_flow1.37" vType="vtypeauto" speedFactor="1.10" vaporized=""/>
    <tripinfo id="flow1.36" depart="98.40" departLane="A3B3_0" departPos="4.10" departSpeed="0.00" departDelay="62.40" arrival="146.10" arrivalLane="D3E3_0" arrivalPos="72.80" arrivalSpeed="13.24" duration="47.70" routeLength="368.70" waitingTime="0.00" waitingCount="0" stopTime="0.00" timeLoss="19.97" rerouteNo="0" devices="tripinfo_flow1.36" vType="vtypeauto" speedFactor="0.96" vaporized=""/>
    <tripinfo id="flow1.38" depart="103.50" departLane="A3B3_0" departPos="4.10" departSpeed="0.00" departDelay="65.50" arrival="146.10" arrivalLane="D3E3_1" arrivalPos="72.80" arrivalSpeed="12.79" duration="42.60" routeLength="368.70" waitingTime="0.00" waitingCount="0" stopTime="0.00" timeLoss="13.76" rerouteNo="0" devices="tripinfo_flow1.38" vType="vtypeauto" speedFactor="0.92" vaporized=""/>
    <tripinfo id="flow2.19" depart="52.80" departLane="A0A1_0" departPos="4.10" departSpeed="0.00" departDelay="33.80" arrival="146.20" arrivalLane="C3D3_0" arrivalPos="72.80" arrivalSpeed="13.44" duration="93.40" routeLength="512.81" waitingTime="24.00" waitingCount="3" stopTime="0.00" timeLoss="51.79" rerouteNo="0" devices="tripinfo_flow2.19" vType="vtypeauto" speedFactor="0.97" vaporized=""/>
    <tripinfo id="flow1.40" depart="109.10" departLane="A3B3_0" departPos="4.10" departSpeed="0.00" departDelay="69.10" arrival="147.20" arrivalLane="D3E3_2" arrivalPos="72.80" arrivalSpeed="15.23" duration="38.10" routeLength="368.70" waitingTime="0.00" waitingCount="0" stopTime="0.00" timeLoss="13.98" rerouteNo="0" devices="tripinfo_flow1.40" vType="vtypeauto" speedFactor="1.10" vaporized=""/>
    <tripinfo id="flow1.39" depart="106.30" departLane="A3B3_0" departPos="4.10" departSpeed="0.00" departDelay="67.30" arrival="147.60" arrivalLane="D3E3_0" arrivalPos="72.80" arrivalSpeed="13.72" duration="41.30" routeLength="368.70" waitingTime="0.00" waitingCount="0" stopTime="0.00" timeLoss="14.50" rerouteNo="0" devices="tripinfo_flow1.39" vType="vtypeauto" speedFactor="0.99" vaporized=""/>
    <tripinfo id="flow1.41" depart="111.90" departLane="A3B3_0" departPos="4.10" departSpeed="0.00" departDelay="70.90" arrival="147.70" arrivalLane="D3E3_1" arrivalPos="72.80" arrivalSpeed="14.70" duration="35.80" routeLength="368.70" waitingTime="0.00" waitingCount="0" stopTime="0.00" timeLoss="10.72" rerouteNo="0" devices="tripinfo_flow1.41" vType="vtypeauto" speedFactor="1.06" vaporized=""/>
    <tripinfo id="flow2.21" depart="58.30" departLane="A0A1_0" departPos="4.10" departSpeed="0.00" departDelay="37.30" arrival="149.30" arrivalLane="C3D3_0" arrivalPos="72.80" arrivalSpeed="12.15" duration="91.00" routeLength="512.81" waitingTime="8.90" waitingCount="2" stopTime="0.00" timeLoss="45.28" rerouteNo="0" devices="tripinfo_flow2.21" vType="vtypeauto" speedFactor="0.88" vaporized=""/>
    <tripinfo id="flow0.7" depart="11.10" departLane="B4B3_0" departPos="4.10" departSpeed="0.00" departDelay="4.10" arrival="149.50" arrivalLane="B3A3_2" arrivalPos="72.80" arrivalSpeed="13.97" duration="138.40" routeLength="560.63" waitingTime="61.80" waitingCount="9" stopTime="0.00" timeLoss="96.61" rerouteNo="0" devices="tripinfo_flow0.7" vType="vtypeauto" speedFactor="1.01" vaporized=""/>
    <tripinfo id="flow2.22" depart="61.10" departLane="A0A1_0" departPos="4.10" departSpeed="0.00" departDelay="39.10" arrival="150.80" arrivalLane="C3D3_0" arrivalPos="72.80" arrivalSpeed="14.33" duration="89.70" routeLength="512.81" waitingTime="19.30" waitingCount="5" stopTime="0.00" timeLoss="50.93" rerouteNo="0" devices="tripinfo_flow2.22" vType="vtypeauto" speedFactor="1.04" vaporized=""/>
    <tripinfo id="flow0.10" depart="17.50" departLane="B4B3_0" departPos="4.10" departSpeed="0.00" departDelay="7.50" arrival="150.90" arrivalLane="B3A3_2" arrivalPos="72.80" arrivalSpeed="16.31" duration="133.40" routeLength="560.63" waitingTime="39.90" waitingCount="10" stopTime="0.00" timeLoss="97.61" rerouteNo="0" devices="tripinfo_flow0.10" vType="vtypeauto" speedFactor="1.18" vaporized=""/>
    <tripinfo id="flow0.1" depart="1.40" departLane="B4B3_0" departPos="4.10" departSpeed="0.00" departDelay="0.40" arrival="152.50" arrivalLane="B3A3_2" arrivalPos="72.80" arrivalSpeed="15.04" duration="151.10" routeLength="560.63" waitingTime="59.70" waitingCount="7" stopTime="0.00" timeLoss="112.08" rerouteNo="0" devices="tripinfo_flow0.1" vType="vtypeauto" speedFactor="1.08" vaporized=""/>
    <tripinfo id="flow2.27" depart="74.90" departLane="A0A1_0" departPos="4.10" departSpeed="0.00" departDelay="47.90" arrival="153.10" arrivalLane="C3D3_0" arrivalPos="72.80" arrivalSpeed="13.34" duration="78.20" routeLength="512.81" waitingTime="6.30" waitingCount="2" stopTime="0.00" timeLoss="36.55" rerouteNo="0" devices="tripinfo_flow2.27" vType="vtypeauto" speedFactor="0.97" vaporized=""/>
    <tripinfo id="flow2.23" depart="63.90" departLane="A0A1_0" departPos="4.10" departSpeed="0.00" departDelay="40.90" arrival="155.30" arrivalLane="C3D3_0" arrivalPos="72.80" arrivalSpeed="13.49" duration="91.40" routeLength="512.81" waitingTime="13.20" waitingCount="4" stopTime="0.00" timeLoss="49.96" rerouteNo="0" devices="tripinfo_flow2.23" vType="vtypeauto" speedFactor="0.97" vaporized=""/>