<?xml version="1.0" encoding="UTF-8"?>

<!-- generated on 2024-10-29 13:05:14 by Eclipse SUMO sumo Version 1.20.0
<configuration xmlns:xsi="http://www.w3.org/2001/XMLSchema-instance" xsi:noNamespaceSchemaLocation="http://sumo.dlr.de/xsd/sumoConfiguration.xsd">

    <input>
        <net-file value="./sim_cfg_grid_3_lanes/grid.net.xml"/>
        <route-files value="./sim_cfg_grid_3_lanes/3x0.16.rou.xml"/>
    </input>

    <output>
        <tripinfo-output value="./sim_cfg_grid_3_lanes/tripinfo_0.058.xml"/>
    </output>

    <time>
        <begin value="0"/>
        <end value="500"/>
        <step-length value="0.1"/>
    </time>

    <traci_server>
        <remote-port value="49658"/>
    </traci_server>

    <gui_only>
        <gui-settings-file value="./sim_cfg_grid_3_lanes/gui_settings.xml"/>
    </gui_only>

</configuration>
-->

<tripinfos xmlns:xsi="http://www.w3.org/2001/XMLSchema-instance" xsi:noNamespaceSchemaLocation="http://sumo.dlr.de/xsd/tripinfo_file.xsd">
    <tripinfo id="flow1.1" depart="6.00" departLane="A3B3_0" departPos="4.10" departSpeed="0.00" departDelay="0.00" arrival="50.80" arrivalLane="D3E3_1" arrivalPos="72.80" arrivalSpeed="14.31" duration="44.80" routeLength="368.70" waitingTime="5.70" waitingCount="2" stopTime="0.00" timeLoss="18.97" rerouteNo="0" devices="tripinfo_flow1.1" vType="vtypeauto" speedFactor="1.03" vaporized=""/>
    <tripinfo id="flow1.0" depart="0.00" departLane="A3B3_0" departPos="4.10" departSpeed="0.00" departDelay="0.00" arrival="51.00" arrivalLane="D3E3_0" arrivalPos="72.80" arrivalSpeed="13.03" duration="51.00" routeLength="368.70" waitingTime="11.10" waitingCount="2" stopTime="0.00" timeLoss="22.68" rerouteNo="0" devices="tripinfo_flow1.0" vType="vtypeauto" speedFactor="0.94" vaporized=""/>
    <tripinfo id="flow2.0" depart="0.00" departLane="A0A1_0" departPos="4.10" departSpeed="0.00" departDelay="0.00" arrival="59.60" arrivalLane="C3D3_0" arrivalPos="72.80" arrivalSpeed="8.64" duration="59.60" routeLength="512.81" waitingTime="6.60" waitingCount="1" stopTime="0.00" timeLoss="19.68" rerouteNo="0" devices="tripinfo_flow2.0" vType="vtypeauto" speedFactor="1.01" vaporized=""/>
    <tripinfo id="flow2.1" depart="6.00" departLane="A0A1_0" departPos="4.10" departSpeed="0.00" departDelay="0.00" arrival="64.90" arrivalLane="C3D3_0" arrivalPos="72.80" arrivalSpeed="11.52" duration="58.90" routeLength="512.81" waitingTime="0.00" waitingCount="0" stopTime="0.00" timeLoss="10.35" rerouteNo="0" devices="tripinfo_flow2.1" vType="vtypeauto" speedFactor="0.83" vaporized=""/>
    <tripinfo id="flow0.0" depart="0.00" departLane="B4B3_0" departPos="4.10" departSpeed="0.00" departDelay="0.00" arrival="66.40" arrivalLane="B3A3_2" arrivalPos="72.80" arrivalSpeed="14.68" duration="66.40" routeLength="560.63" waitingTime="11.30" waitingCount="2" stopTime="0.00" timeLoss="26.57" rerouteNo="0" devices="tripinfo_flow0.0" vType="vtypeauto" speedFactor="1.06" vaporized=""/>
    <tripinfo id="flow1.4" depart="24.00" departLane="A3B3_0" departPos="4.10" departSpeed="0.00" departDelay="0.00" arrival="66.50" arrivalLane="D3E3_2" arrivalPos="72.80" arrivalSpeed="15.52" duration="42.50" routeLength="368.70" waitingTime="7.10" waitingCount="1" stopTime="0.00" timeLoss="18.81" rerouteNo="0" devices="tripinfo_flow1.4" vType="vtypeauto" speedFactor="1.12" vaporized=""/>
    <tripinfo id="flow1.3" depart="18.00" departLane="A3B3_0" departPos="4.10" departSpeed="0.00" departDelay="0.00" arrival="66.60" arrivalLane="D3E3_1" arrivalPos="72.80" arrivalSpeed="15.05" duration="48.60" routeLength="368.70" waitingTime="5.80" waitingCount="3" stopTime="0.00" timeLoss="24.17" rerouteNo="0" devices="tripinfo_flow1.3" vType="vtypeauto" speedFactor="1.09" vaporized=""/>
    <tripinfo id="flow1.2" depart="12.00" departLane="A3B3_0" departPos="4.10" departSpeed="0.00" departDelay="0.00" arrival="67.20" arrivalLane="D3E3_0" arrivalPos="72.80" arrivalSpeed="12.19" duration="55.20" routeLength="368.70" waitingTime="10.70" waitingCount="2" stopTime="0.00" timeLoss="25.21" rerouteNo="0" devices="tripinfo_flow1.2" vType="vtypeauto" speedFactor="0.89" vaporized=""/>
    <tripinfo id="flow2.2" depart="12.00" departLane="A0A1_0" departPos="4.10" departSpeed="0.00" departDelay="0.00" arrival="67.40" arrivalLane="C3D3_0" arrivalPos="72.80" arrivalSpeed="12.98" duration="55.40" routeLength="512.81" waitingTime="0.00" waitingCount="0" stopTime="0.00" timeLoss="12.35" rerouteNo="0" devices="tripinfo_flow2.2" vType="vtypeauto" speedFactor="0.94" vaporized=""/>
    <tripinfo id="flow0.1" depart="6.00" departLane="B4B3_0" departPos="4.10" departSpeed="0.00" departDelay="0.00" arrival="70.40" arrivalLane="B3A3_2" arrivalPos="72.80" arrivalSpeed="15.02" duration="64.40" routeLength="560.63" waitingTime="2.10" waitingCount="1" stopTime="0.00" timeLoss="25.43" rerouteNo="0" devices="tripinfo_flow0.1" vType="vtypeauto" speedFactor="1.08" vaporized=""/>
    <tripinfo id="flow1.6" depart="36.00" departLane="A3B3_0" departPos="4.10" departSpeed="0.00" departDelay="0.00" arrival="80.50" arrivalLane="D3E3_0" arrivalPos="72.80" arrivalSpeed="15.98" duration="44.50" routeLength="368.70" waitingTime="7.40" waitingCount="2" stopTime="0.00" timeLoss="21.49" rerouteNo="0" devices="tripinfo_flow1.6" vType="vtypeauto" speedFactor="1.16" vaporized=""/>
    <tripinfo id="flow1.8" depart="48.00" departLane="A3B3_0" departPos="4.10" departSpeed="0.00" departDelay="0.00" arrival="82.40" arrivalLane="D3E3_2" arrivalPos="72.80" arrivalSpeed="12.10" duration="34.40" routeLength="368.70" waitingTime="0.00" waitingCount="0" stopTime="0.00" timeLoss="3.97" rerouteNo="0" devices="tripinfo_flow1.8" vType="vtypeauto" speedFactor="0.87" vaporized=""/>
    <tripinfo id="flow2.3" depart="18.00" departLane="A0A1_0" departPos="4.10" departSpeed="0.00" departDelay="0.00" arrival="83.30" arrivalLane="C3D3_0" arrivalPos="72.80" arrivalSpeed="14.20" duration="65.30" routeLength="512.81" waitingTime="8.40" waitingCount="2" stopTime="0.00" timeLoss="25.97" rerouteNo="0" devices="tripinfo_flow2.3" vType="vtypeauto" speedFactor="1.03" vaporized=""/>
    <tripinfo id="flow1.5" depart="30.00" departLane="A3B3_0" departPos="4.10" departSpeed="0.00" departDelay="0.00" arrival="83.50" arrivalLane="D3E3_0" arrivalPos="72.80" arrivalSpeed="12.17" duration="53.50" routeLength="368.70" waitingTime="12.60" waitingCount="2" stopTime="0.00" timeLoss="23.23" rerouteNo="0" devices="tripinfo_flow1.5" vType="vtypeauto" speedFactor="0.88" vaporized=""/>
    <tripinfo id="flow1.7" depart="42.00" departLane="A3B3_0" departPos="4.10" departSpeed="0.00" departDelay="0.00" arrival="84.00" arrivalLane="D3E3_2" arrivalPos="72.80" arrivalSpeed="13.52" duration="42.00" routeLength="368.70" waitingTime="0.00" waitingCount="0" stopTime="0.00" timeLoss="14.71" rerouteNo="0" devices="tripinfo_flow1.7" vType="vtypeauto" speedFactor="0.97" vaporized=""/>
    <tripinfo id="flow1.9" depart="54.00" departLane="A3B3_0" departPos="4.10" departSpeed="0.00" departDelay="0.00" arrival="85.00" arrivalLane="D3E3_0" arrivalPos="72.80" arrivalSpeed="14.71" duration="31.00" routeLength="368.70" waitingTime="0.00" waitingCount="0" stopTime="0.00" timeLoss="7.51" rerouteNo="0" devices="tripinfo_flow1.9" vType="vtypeauto" speedFactor="1.13" vaporized=""/>
    <tripinfo id="flow2.4" depart="24.00" departLane="A0A1_0" departPos="4.10" departSpeed="0.00" departDelay="0.00" arrival="85.60" arrivalLane="C3D3_0" arrivalPos="72.80" arrivalSpeed="13.67" duration="61.60" routeLength="512.81" waitingTime="0.00" waitingCount="0" stopTime="0.00" timeLoss="20.89" rerouteNo="0" devices="tripinfo_flow2.4" vType="vtypeauto" speedFactor="0.99" vaporized=""/>
    <tripinfo id="flow2.5" depart="30.00" departLane="A0A1_0" departPos="4.10" departSpeed="0.00" departDelay="0.00" arrival="88.90" arrivalLane="C3D3_0" arrivalPos="72.80" arrivalSpeed="13.02" duration="58.90" routeLength="512.81" waitingTime="0.00" waitingCount="0" stopTime="0.00" timeLoss="16.07" rerouteNo="0" devices="tripinfo_flow2.5" vType="vtypeauto" speedFactor="0.94" vaporized=""/>
    <tripinfo id="flow0.2" depart="12.00" departLane="B4B3_0" departPos="4.10" departSpeed="0.00" departDelay="0.00" arrival="96.50" arrivalLane="B3A3_2" arrivalPos="72.80" arrivalSpeed="14.45" duration="84.50" routeLength="560.63" waitingTime="17.10" waitingCount="3" stopTime="0.00" timeLoss="44.14" rerouteNo="0" devices="tripinfo_flow0.2" vType="vtypeauto" speedFactor="1.05" vaporized=""/>
    <tripinfo id="flow0.3" depart="18.00" departLane="B4B3_0" departPos="4.10" departSpeed="0.00" departDelay="0.00" arrival="98.90" arrivalLane="B3A3_2" arrivalPos="72.80" arrivalSpeed="11.78" duration="80.90" routeLength="560.63" waitingTime="7.80" waitingCount="1" stopTime="0.00" timeLoss="31.66" rerouteNo="0" devices="tripinfo_flow0.3" vType="vtypeauto" speedFactor="0.86" vaporized=""/>
    <tripinfo id="flow0.4" depart="24.00" departLane="B4B3_0" departPos="4.10" departSpeed="0.00" departDelay="0.00" arrival="100.40" arrivalLane="B3A3_2" arrivalPos="72.80" arrivalSpeed="14.53" duration="76.40" routeLength="560.63" waitingTime="3.00" waitingCount="1" stopTime="0.00" timeLoss="36.08" rerouteNo="0" devices="tripinfo_flow0.4" vType="vtypeauto" speedFactor="1.05" vaporized=""/>
    <tripinfo id="flow0.5" depart="30.00" departLane="B4B3_0" departPos="4.10" departSpeed="0.00" departDelay="0.00" arrival="102.00" arrivalLane="B3A3_2" arrivalPos="72.80" arrivalSpeed="12.78" duration="72.00" routeLength="560.63" waitingTime="0.00" waitingCount="0" stopTime="0.00" timeLoss="26.49" rerouteNo="0" devices="tripinfo_flow0.5" vType="vtypeauto" speedFactor="0.93" vaporized=""/>
    <tripinfo id="flow2.6" depart="36.00" departLane="A0A1_0" departPos="4.10" departSpeed="0.00" departDelay="0.00" arrival="114.40" arrivalLane="C3D3_0" arrivalPos="72.80" arrivalSpeed="14.09" duration="78.40" routeLength="512.81" waitingTime="19.10" waitingCount="4" stopTime="0.00" timeLoss="38.81" rerouteNo="0" devices="tripinfo_flow2.6" vType="vtypeauto" speedFactor="1.02" vaporized=""/>
    <tripinfo id="flow1.10" depart="60.00" departLane="A3B3_0" departPos="4.10" departSpeed="0.00" departDelay="0.00" arrival="116.20" arrivalLane="D3E3_0" arrivalPos="72.80" arrivalSpeed="15.95" duration="56.20" routeLength="368.70" waitingTime="19.30" waitingCount="2" stopTime="0.00" timeLoss="33.18" rerouteNo="0" devices="tripinfo_flow1.10" vType="vtypeauto" speedFactor="1.15" vaporized=""/>
    <tripinfo id="flow1.11" depart="66.00" departLane="A3B3_0" departPos="4.10" departSpeed="0.00" departDelay="0.00" arrival="116.80" arrivalLane="D3E3_1" arrivalPos="72.80" arrivalSpeed="13.71" duration="50.80" routeLength="368.70" waitingTime="11.30" waitingCount="2" stopTime="0.00" timeLoss="24.05" rerouteNo="0" devices="tripinfo_flow1.11" vType="vtypeauto" speedFactor="0.99" vaporized=""/>
    <tripinfo id="flow1.13" depart="78.00" departLane="A3B3_0" departPos="4.10" departSpeed="0.00" departDelay="0.00" arrival="116.80" arrivalLane="D3E3_2" arrivalPos="72.80" arrivalSpeed="14.21" duration="38.80" routeLength="368.70" waitingTime="3.90" waitingCount="1" stopTime="0.00" timeLoss="12.95" rerouteNo="0" devices="tripinfo_flow1.13" vType="vtypeauto" speedFactor="1.03" vaporized=""/>
    <tripinfo id="flow2.7" depart="42.00" departLane="A0A1_0" departPos="4.10" departSpeed="0.00" departDelay="0.00" arrival="117.00" arrivalLane="C3D3_0" arrivalPos="72.80" arrivalSpeed="12.26" duration="75.00" routeLength="512.81" waitingTime="0.00" waitingCount="0" stopTime="0.00" timeLoss="29.71" rerouteNo="0" devices="tripinfo_flow2.7" vType="vtypeauto" speedFactor="0.89" vaporized=""/>
    <tripinfo id="flow1.12" depart="72.00" departLane="A3B3_0" departPos="4.10" departSpeed="0.00" departDelay="0.00" arrival="117.60" arrivalLane="D3E3_0" arrivalPos="72.80" arrivalSpeed="16.31" duration="45.60" routeLength="368.70" waitingTime="2.10" waitingCount="1" stopTime="0.00" timeLoss="23.09" rerouteNo="0" devices="tripinfo_flow1.12" vType="vtypeauto" speedFactor="1.18" vaporized=""/>
    <tripinfo id="flow1.14" depart="84.00" departLane="A3B3_0" departPos="4.10" departSpeed="0.00" departDelay="0.00" arrival="118.30" arrivalLane="D3E3_1" arrivalPos="72.80" arrivalSpeed="14.35" duration="34.30" routeLength="368.70" waitingTime="0.00" waitingCount="0" stopTime="0.00" timeLoss="8.64" rerouteNo="0" devices="tripinfo_flow1.14" vType="vtypeauto" speedFactor="1.04" vaporized=""/>
    <tripinfo id="flow2.8" depart="48.00" departLane="A0A1_0" departPos="4.10" departSpeed="0.00" departDelay="0.00" arrival="119.20" arrivalLane="C3D3_0" arrivalPos="72.80" arrivalSpeed="12.71" duration="71.20" routeLength="512.81" waitingTime="0.00" waitingCount="0" stopTime="0.00" timeLoss="27.21" rerouteNo="0" devices="tripinfo_flow2.8" vType="vtypeauto" speedFactor="0.92" vaporized=""/>
    <tripinfo id="flow2.9" depart="54.00" departLane="A0A1_0" departPos="4.10" departSpeed="0.00" departDelay="0.00" arrival="121.40" arrivalLane="C3D3_0" arrivalPos="72.80" arrivalSpeed="12.83" duration="67.40" routeLength="512.81" waitingTime="6.90" waitingCount="1" stopTime="0.00" timeLoss="24.12" rerouteNo="0" devices="tripinfo_flow2.9" vType="vtypeauto" speedFactor="0.93" vaporized=""/>
    <tripinfo id="flow2.10" depart="60.00" departLane="A0A1_0" departPos="4.10" departSpeed="0.00" departDelay="0.00" arrival="123.30" arrivalLane="C3D3_0" arrivalPos="72.80" arrivalSpeed="13.86" duration="63.30" routeLength="512.81" waitingTime="0.00" waitingCount="0" stopTime="0.00" timeLoss="23.25" rerouteNo="0" devices="tripinfo_flow2.10" vType="vtypeauto" speedFactor="1.01" vaporized=""/>
    <tripinfo id="flow2.11" depart="66.00" departLane="A0A1_0" departPos="4.10" departSpeed="0.00" departDelay="0.00" arrival="125.70" arrivalLane="C3D3_0" arrivalPos="72.80" arrivalSpeed="14.16" duration="59.70" routeLength="512.81" waitingTime="0.30" waitingCount="1" stopTime="0.00" timeLoss="20.16" rerouteNo="0" devices="tripinfo_flow2.11" vType="vtypeauto" speedFactor="1.02" vaporized=""/>
    <tripinfo id="flow2.12" depart="72.00" departLane="A0A1_0" departPos="4.10" departSpeed="0.00" departDelay="0.00" arrival="129.80" arrivalLane="C3D3_0" arrivalPos="72.80" arrivalSpeed="15.24" duration="57.80" routeLength="512.81" waitingTime="8.00" waitingCount="1" stopTime="0.00" timeLoss="21.11" rerouteNo="0" devices="tripinfo_flow2.12" vType="vtypeauto" speedFactor="1.10" vaporized=""/>
    <tripinfo id="flow2.13" depart="78.00" departLane="A0A1_0" departPos="4.10" departSpeed="0.00" departDelay="0.00" arrival="134.40" arrivalLane="C3D3_0" arrivalPos="72.80" arrivalSpeed="13.23" duration="56.40" routeLength="512.81" waitingTime="0.00" waitingCount="0" stopTime="0.00" timeLoss="14.32" rerouteNo="0" devices="tripinfo_flow2.13" vType="vtypeauto" speedFactor="0.96" vaporized=""/>
    <tripinfo id="flow2.14" depart="84.00" departLane="A0A1_0" departPos="4.10" departSpeed="0.00" departDelay="0.00" arrival="137.40" arrivalLane="C3D3_0" arrivalPos="72.80" arrivalSpeed="14.40" duration="53.40" routeLength="512.81" waitingTime="0.00" waitingCount="0" stopTime="0.00" timeLoss="14.76" rerouteNo="0" devices="tripinfo_flow2.14" vType="vtypeauto" speedFactor="1.04" vaporized=""/>
    <tripinfo id="flow0.7" depart="42.00" departLane="B4B3_0" departPos="4.10" departSpeed="0.00" departDelay="0.00" arrival="139.70" arrivalLane="B3A3_0" arrivalPos="72.80" arrivalSpeed="13.94" duration="97.70" routeLength="560.63" waitingTime="25.90" waitingCount="2" stopTime="0.00" timeLoss="55.94" rerouteNo="0" devices="tripinfo_flow0.7" vType="vtypeauto" speedFactor="1.01" vaporized=""/>
    <tripinfo id="flow0.6" depart="36.00" departLane="B4B3_0" departPos="4.10" departSpeed="0.00" departDelay="0.00" arrival="140.10" arrivalLane="B3A3_1" arrivalPos="72.80" arrivalSpeed="12.94" duration="104.10" routeLength="560.63" waitingTime="27.40" waitingCount="4" stopTime="0.00" timeLoss="58.99" rerouteNo="0" devices="tripinfo_flow0.6" vType="vtypeauto" speedFactor="0.94" vaporized=""/>
    <tripinfo id="flow0.8" depart="48.00" departLane="B4B3_0" departPos="4.10" departSpeed="0.00" departDelay="0.00" arrival="140.60" arrivalLane="B3A3_2" arrivalPos="72.80" arrivalSpeed="11.36" duration="92.60" routeLength="560.63" waitingTime="11.00" waitingCount="3" stopTime="0.00" timeLoss="41.47" rerouteNo="0" devices="tripinfo_flow0.8" vType="vtypeauto" speedFactor="0.83" vaporized=""/>
    <tripinfo id="flow0.9" depart="54.00" departLane="B4B3_0" departPos="4.10" departSpeed="0.00" departDelay="0.00" arrival="141.60" arrivalLane="B3A3_1" arrivalPos="72.80" arrivalSpeed="13.13" duration="87.60" routeLength="560.63" waitingTime="6.00" waitingCount="2" stopTime="0.00" timeLoss="43.15" rerouteNo="0" devices="tripinfo_flow0.9" vType="vtypeauto" speedFactor="0.95" vaporized=""/>
    <tripinfo id="flow0.11" depart="66.00" departLane="B4B3_0" departPos="4.10" departSpeed="0.00" departDelay="0.00" arrival="141.80" arrivalLane="B3A3_0" arrivalPos="72.80" arrivalSpeed="16.25" duration="75.80" routeLength="560.63" waitingTime="0.00" waitingCount="0" stopTime="0.00" timeLoss="39.83" rerouteNo="0" devices="tripinfo_flow0.11" vType="vtypeauto" speedFactor="1.17" vaporized=""/>
    <tripinfo id="flow0.10" depart="60.00" departLane="B4B3_0" departPos="4.10" departSpeed="0.00" departDelay="0.00" arrival="142.10" arrivalLane="B3A3_2" arrivalPos="72.80" arrivalSpeed="14.15" duration="82.10" routeLength="560.63" waitingTime="0.00" waitingCount="0" stopTime="0.00" timeLoss="46.28" rerouteNo="0" devices="tripinfo_flow0.10" vType="vtypeauto" speedFactor="1.18" vaporized=""/>
    <tripinfo id="flow0.12" depart="72.00" departLane="B4B3_0" departPos="4.10" departSpeed="0.00" departDelay="0.00" arrival="143.60" arrivalLane="B3A3_2" arrivalPos="72.80" arrivalSpeed="13.42" duration="71.60" routeLength="560.63" waitingTime="0.00" waitingCount="0" stopTime="0.00" timeLoss="28.23" rerouteNo="0" devices="tripinfo_flow0.12" vType="vtypeauto" speedFactor="0.97" vaporized=""/>
    <tripinfo id="flow0.13" depart="78.00" departLane="B4B3_0" departPos="4.10" departSpeed="0.00" departDelay="0.00" arrival="145.40" arrivalLane="B3A3_2" arrivalPos="72.80" arrivalSpeed="12.40" duration="67.40" routeLength="560.63" waitingTime="10.60" waitingCount="1" stopTime="0.00" timeLoss="20.57" rerouteNo="0" devices="tripinfo_flow0.13" vType="vtypeauto" speedFactor="0.90" vaporized=""/>
    <tripinfo id="flow0.14" depart="84.00" departLane="B4B3_0" departPos="4.10" departSpeed="0.00" departDelay="0.00" arrival="146.90" arrivalLane="B3A3_2" arrivalPos="72.80" arrivalSpeed="15.16" duration="62.90" routeLength="560.63" waitingTime="1.80" waitingCount="1" stopTime="0.00" timeLoss="24.24" rerouteNo="0" devices="tripinfo_flow0.14" vType="vtypeauto" speedFactor="1.09" vaporized=""/>
    <tripinfo id="flow2.15" depart="90.00" departLane="A0A1_0" departPos="4.10" departSpeed="0.00" departDelay="0.00" arrival="160.50" arrivalLane="C3D3_1" arrivalPos="72.80" arrivalSpeed="7.83" duration="70.50" routeLength="512.81" waitingTime="7.50" waitingCount="2" stopTime="0.00" timeLoss="25.83" rerouteNo="0" devices="tripinfo_flow2.15" vType="vtypeauto" speedFactor="0.90" vaporized=""/>
    <tripinfo id="flow2.16" depart="96.00" departLane="A0A1_0" departPos="4.10" departSpeed="0.00" departDelay="0.00" arrival="162.30" arrivalLane="C3D3_0" arrivalPos="72.80" arrivalSpeed="9.77" duration="66.30" routeLength="512.81" waitingTime="0.00" waitingCount="0" stopTime="0.00" timeLoss="19.17" rerouteNo="0" devices="tripinfo_flow2.16" vType="vtypeauto" speedFactor="0.85" vaporized=""/>
    <tripinfo id="flow2.17" depart="102.00" departLane="A0A1_0" departPos="4.10" departSpeed="0.00" departDelay="0.00" arrival="163.90" arrivalLane="C3D3_0" arrivalPos="72.80" arrivalSpeed="11.47" duration="61.90" routeLength="512.81" waitingTime="0.00" waitingCount="0" stopTime="0.00" timeLoss="25.11" rerouteNo="0" devices="tripinfo_flow2.17" vType="vtypeauto" speedFactor="1.10" vaporized=""/>
    <tripinfo id="flow1.17" depart="102.00" departLane="A3B3_0" departPos="4.10" departSpeed="0.00" departDelay="0.00" arrival="165.70" arrivalLane="D3E3_2" arrivalPos="72.80" arrivalSpeed="14.11" duration="63.70" routeLength="368.70" waitingTime="24.00" waitingCount="2" stopTime="0.00" timeLoss="37.50" rerouteNo="0" devices="tripinfo_flow1.17" vType="vtypeauto" speedFactor="1.02" vaporized=""/>
    <tripinfo id="flow1.15" depart="90.00" departLane="A3B3_0" departPos="4.10" departSpeed="0.00" departDelay="0.00" arrival="165.80" arrivalLane="D3E3_0" arrivalPos="72.80" arrivalSpeed="13.73" duration="75.80" routeLength="368.70" waitingTime="32.30" waitingCount="3" stopTime="0.00" timeLoss="49.17" rerouteNo="0" devices="tripinfo_flow1.15" vType="vtypeauto" speedFactor="1.00" vaporized=""/>
    <tripinfo id="flow1.16" depart="96.00" departLane="A3B3_0" departPos="4.10" departSpeed="0.00" departDelay="0.00" arrival="166.50" arrivalLane="D3E3_1" arrivalPos="72.80" arrivalSpeed="11.70" duration="70.50" routeLength="368.70" waitingTime="25.20" waitingCount="2" stopTime="0.00" timeLoss="39.23" rerouteNo="0" devices="tripinfo_flow1.16" vType="vtypeauto" speedFactor="0.85" vaporized=""/>
    <tripinfo id="flow1.18" depart="108.00" departLane="A3B3_0" departPos="4.10" departSpeed="0.00" departDelay="0.00" arrival="167.40" arrivalLane="D3E3_0" arrivalPos="72.80" arrivalSpeed="13.72" duration="59.40" routeLength="368.70" waitingTime="14.80" waitingCount="2" stopTime="0.00" timeLoss="32.67" rerouteNo="0" devices="tripinfo_flow1.18" vType="vtypeauto" speedFactor="1.00" vaporized=""/>
    <tripinfo id="flow1.21" depart="126.00" departLane="A3B3_0" departPos="4.10" departSpeed="0.00" departDelay="0.00" arrival="167.40" arrivalLane="D3E3_2" arrivalPos="72.80" arrivalSpeed="13.01" duration="41.40" routeLength="368.70" waitingTime="0.10" waitingCount="1" stopTime="0.00" timeLoss="13.06" rerouteNo="0" devices="tripinfo_flow1.21" vType="vtypeauto" speedFactor="0.94" vaporized=""/>
    <tripinfo id="flow1.19" depart="114.00" departLane="A3B3_0" departPos="4.10" departSpeed="0.00" departDelay="0.00" arrival="168.00" arrivalLane="D3E3_1" arrivalPos="72.80" arrivalSpeed="14.20" duration="54.00" routeLength="368.70" waitingTime="8.00" waitingCount="2" stopTime="0.00" timeLoss="28.01" rerouteNo="0" devices="tripinfo_flow1.19" vType="vtypeauto" speedFactor="1.02" vaporized=""/>
    <tripinfo id="flow1.20" depart="120.00" departLane="A3B3_0" departPos="4.10" departSpeed="0.00" departDelay="0.00" arrival="168.80" arrivalLane="D3E3_0" arrivalPos="72.80" arrivalSpeed="15.50" duration="48.80" routeLength="368.70" waitingTime="1.20" waitingCount="1" stopTime="0.00" timeLoss="25.04" rerouteNo="0" devices="tripinfo_flow1.20" vType="vtypeauto" speedFactor="1.12" vaporized=""/>
    <tripinfo id="flow0.15" depart="90.00" departLane="B4B3_0" departPos="4.10" departSpeed="0.00" departDelay="0.00" arrival="169.40" arrivalLane="B3A3_2" arrivalPos="72.80" arrivalSpeed="15.06" duration="79.40" routeLength="560.63" waitingTime="14.90" waitingCount="2" stopTime="0.00" timeLoss="40.63" rerouteNo="0" devices="tripinfo_flow0.15" vType="vtypeauto" speedFactor="1.09" vaporized=""/>
    <tripinfo id="flow0.16" depart="96.00" departLane="B4B3_0" departPos="4.10" departSpeed="0.00" departDelay="0.00" arrival="171.80" arrivalLane="B3A3_2" arrivalPos="72.80" arrivalSpeed="12.06" duration="75.80" routeLength="560.63" waitingTime="7.70" waitingCount="1" stopTime="0.00" timeLoss="27.64" rerouteNo="0" devices="tripinfo_flow0.16" vType="vtypeauto" speedFactor="0.88" vaporized=""/>
    <tripinfo id="flow0.17" depart="102.00" departLane="B4B3_0" departPos="4.10" departSpeed="0.00" departDelay="0.00" arrival="173.20" arrivalLane="B3A3_2" arrivalPos="72.80" arrivalSpeed="14.95" duration="71.20" routeLength="560.63" waitingTime="3.00" waitingCount="1" stopTime="0.00" timeLoss="35.12" rerouteNo="0" devices="tripinfo_flow0.17" vType="vtypeauto" speedFactor="1.17" vaporized=""/>
    <tripinfo id="flow0.18" depart="108.00" departLane="B4B3_0" departPos="4.10" departSpeed="0.00" departDelay="0.00" arrival="174.70" arrivalLane="B3A3_2" arrivalPos="72.80" arrivalSpeed="13.81" duration="66.70" routeLength="560.63" waitingTime="0.00" waitingCount="0" stopTime="0.00" timeLoss="24.68" rerouteNo="0" devices="tripinfo_flow0.18" vType="vtypeauto" speedFactor="1.00" vaporized=""/>
    <tripinfo id="flow0.19" depart="114.00" departLane="B4B3_0" departPos="4.10" departSpeed="0.00" departDelay="0.00" arrival="176.20" arrivalLane="B3A3_2" arrivalPos="72.80" arrivalSpeed="15.81" duration="62.20" routeLength="560.63" waitingTime="0.00" waitingCount="0" stopTime="0.00" timeLoss="25.21" rerouteNo="0" devices="tripinfo_flow0.19" vType="vtypeauto" speedFactor="1.14" vaporized=""/>
    <tripinfo id="flow1.24" depart="144.00" departLane="A3B3_0" departPos="4.10" departSpeed="0.00" departDelay="0.00" arrival="183.60" arrivalLane="D3E3_1" arrivalPos="72.80" arrivalSpeed="14.57" duration="39.60" routeLength="368.70" waitingTime="5.30" waitingCount="1" stopTime="0.00" timeLoss="14.39" rerouteNo="0" devices="tripinfo_flow1.24" vType="vtypeauto" speedFactor="1.06" vaporized=""/>
    <tripinfo id="flow1.26" depart="156.00" departLane="A3B3_0" departPos="4.10" departSpeed="0.00" departDelay="0.00" arrival="185.10" arrivalLane="D3E3_1" arrivalPos="72.80" arrivalSpeed="15.05" duration="29.10" routeLength="368.70" waitingTime="0.00" waitingCount="0" stopTime="0.00" timeLoss="4.63" rerouteNo="0" devices="tripinfo_flow1.26" vType="vtypeauto" speedFactor="1.09" vaporized=""/>
    <tripinfo id="flow2.18" depart="108.00" departLane="A0A1_0" departPos="4.10" departSpeed="0.00" departDelay="0.00" arrival="186.90" arrivalLane="C3D3_0" arrivalPos="72.80" arrivalSpeed="12.46" duration="78.90" routeLength="512.81" waitingTime="17.10" waitingCount="4" stopTime="0.00" timeLoss="34.02" rerouteNo="0" devices="tripinfo_flow2.18" vType="vtypeauto" speedFactor="0.90" vaporized=""/>
    <tripinfo id="flow1.22" depart="132.00" departLane="A3B3_0" departPos="4.10" departSpeed="0.00" departDelay="0.00" arrival="187.10" arrivalLane="D3E3_0" arrivalPos="72.80" arrivalSpeed="12.60" duration="55.10" routeLength="368.70" waitingTime="15.00" waitingCount="2" stopTime="0.00" timeLoss="26.04" rerouteNo="0" devices="tripinfo_flow1.22" vType="vtypeauto" speedFactor="0.91" vaporized=""/>
    <tripinfo id="flow1.25" depart="150.00" departLane="A3B3_0" departPos="4.10" departSpeed="0.00" departDelay="0.00" arrival="187.50" arrivalLane="D3E3_1" arrivalPos="72.80" arrivalSpeed="14.33" duration="37.50" routeLength="368.70" waitingTime="0.00" waitingCount="0" stopTime="0.00" timeLoss="11.79" rerouteNo="0" devices="tripinfo_flow1.25" vType="vtypeauto" speedFactor="1.03" vaporized=""/>
    <tripinfo id="flow2.19" depart="114.00" departLane="A0A1_0" departPos="4.10" departSpeed="0.00" departDelay="0.00" arrival="188.60" arrivalLane="C3D3_0" arrivalPos="72.80" arrivalSpeed="13.39" duration="74.60" routeLength="512.81" waitingTime="0.00" waitingCount="0" stopTime="0.00" timeLoss="32.93" rerouteNo="0" devices="tripinfo_flow2.19" vType="vtypeauto" speedFactor="0.97" vaporized=""/>
    <tripinfo id="flow1.23" depart="138.00" departLane="A3B3_0" departPos="4.10" departSpeed="0.00" departDelay="0.00" arrival="188.60" arrivalLane="D3E3_0" arrivalPos="72.80" arrivalSpeed="14.19" duration="50.60" routeLength="368.70" waitingTime="11.70" waitingCount="1" stopTime="0.00" timeLoss="24.61" rerouteNo="0" devices="tripinfo_flow1.23" vType="vtypeauto" speedFactor="1.02" vaporized=""/>
    <tripinfo id="flow2.20" depart="120.00" departLane="A0A1_0" departPos="4.10" departSpeed="0.00" departDelay="0.00" arrival="202.40" arrivalLane="C3D3_0" arrivalPos="72.80" arrivalSpeed="14.05" duration="82.40" routeLength="512.81" waitingTime="17.70" waitingCount="3" stopTime="0.00" timeLoss="42.72" rerouteNo="0" devices="tripinfo_flow2.20" vType="vtypeauto" speedFactor="1.02" vaporized=""/>
    <tripinfo id="flow1.27" depart="162.00" departLane="A3B3_0" departPos="4.10" departSpeed="0.00" departDelay="0.00" arrival="203.00" arrivalLane="D3E3_0" arrivalPos="72.80" arrivalSpeed="14.11" duration="41.00" routeLength="368.70" waitingTime="6.30" waitingCount="1" stopTime="0.00" timeLoss="14.87" rerouteNo="0" devices="tripinfo_flow1.27" vType="vtypeauto" speedFactor="1.02" vaporized=""/>
    <tripinfo id="flow2.21" depart="126.00" departLane="A0A1_0" departPos="4.10" departSpeed="0.00" departDelay="0.00" arrival="205.20" arrivalLane="C3D3_0" arrivalPos="72.80" arrivalSpeed="12.18" duration="79.20" routeLength="512.81" waitingTime="5.50" waitingCount="1" stopTime="0.00" timeLoss="33.40" rerouteNo="0" devices="tripinfo_flow2.21" vType="vtypeauto" speedFactor="0.88" vaporized=""/>
    <tripinfo id="flow2.22" depart="132.00" departLane="A0A1_0" departPos="4.10" departSpeed="0.00" departDelay="0.00" arrival="206.70" arrivalLane="C3D3_0" arrivalPos="72.80" arrivalSpeed="14.39" duration="74.70" routeLength="512.81" waitingTime="1.70" waitingCount="1" stopTime="0.00" timeLoss="35.91" rerouteNo="0" devices="tripinfo_flow2.22" vType="vtypeauto" speedFactor="1.04" vaporized=""/>
    <tripinfo id="flow2.23" depart="138.00" departLane="A0A1_0" departPos="4.10" departSpeed="0.00" departDelay="0.00" arrival="209.00" arrivalLane="C3D3_0" arrivalPos="72.80" arrivalSpeed="13.40" duration="71.00" routeLength="512.81" waitingTime="0.00" waitingCount="0" stopTime="0.00" timeLoss="29.51" rerouteNo="0" devices="tripinfo_flow2.23" vType="vtypeauto" speedFactor="0.97" vaporized=""/>
    <tripinfo id="flow2.24" depart="144.00" departLane="A0A1_0" departPos="4.10" departSpeed="0.00" departDelay="0.00" arrival="212.10" arrivalLane="C3D3_0" arrivalPos="72.80" arrivalSpeed="13.15" duration="68.10" routeLength="512.81" waitingTime="11.70" waitingCount="2" stopTime="0.00" timeLoss="25.91" rerouteNo="0" devices="tripinfo_flow2.24" vType="vtypeauto" speedFactor="0.96" vaporized=""/>