<?xml version="1.0" encoding="UTF-8"?>

<!-- generated on 2024-10-29 13:07:33 by Eclipse SUMO sumo Version 1.20.0
<configuration xmlns:xsi="http://www.w3.org/2001/XMLSchema-instance" xsi:noNamespaceSchemaLocation="http://sumo.dlr.de/xsd/sumoConfiguration.xsd">

    <input>
        <net-file value="./sim_cfg_grid_3_lanes/grid.net.xml"/>
        <route-files value="./sim_cfg_grid_3_lanes/3x0.08.rou.xml"/>
    </input>

    <output>
        <tripinfo-output value="./sim_cfg_grid_3_lanes/tripinfo_0.029.xml"/>
    </output>

    <time>
        <begin value="0"/>
        <end value="500"/>
        <step-length value="0.1"/>
    </time>

    <traci_server>
        <remote-port value="49676"/>
    </traci_server>

    <gui_only>
        <gui-settings-file value="./sim_cfg_grid_3_lanes/gui_settings.xml"/>
    </gui_only>

</configuration>
-->

<tripinfos xmlns:xsi="http://www.w3.org/2001/XMLSchema-instance" xsi:noNamespaceSchemaLocation="http://sumo.dlr.de/xsd/tripinfo_file.xsd">
    <tripinfo id="flow1.0" depart="0.00" departLane="A3B3_0" departPos="4.10" departSpeed="0.00" departDelay="0.00" arrival="51.00" arrivalLane="D3E3_0" arrivalPos="72.80" arrivalSpeed="13.03" duration="51.00" routeLength="368.70" waitingTime="11.10" waitingCount="2" stopTime="0.00" timeLoss="22.66" rerouteNo="0" devices="tripinfo_flow1.0" vType="vtypeauto" speedFactor="0.94" vaporized=""/>
    <tripinfo id="flow2.0" depart="0.00" departLane="A0A1_0" departPos="4.10" departSpeed="0.00" departDelay="0.00" arrival="59.60" arrivalLane="C3D3_0" arrivalPos="72.80" arrivalSpeed="9.02" duration="59.60" routeLength="512.81" waitingTime="6.60" waitingCount="1" stopTime="0.00" timeLoss="19.68" rerouteNo="0" devices="tripinfo_flow2.0" vType="vtypeauto" speedFactor="1.01" vaporized=""/>
    <tripinfo id="flow1.1" depart="12.00" departLane="A3B3_0" departPos="4.10" departSpeed="0.00" departDelay="0.00" arrival="66.60" arrivalLane="D3E3_0" arrivalPos="72.80" arrivalSpeed="14.28" duration="54.60" routeLength="368.70" waitingTime="11.60" waitingCount="3" stopTime="0.00" timeLoss="28.78" rerouteNo="0" devices="tripinfo_flow1.1" vType="vtypeauto" speedFactor="1.03" vaporized=""/>
    <tripinfo id="flow0.0" depart="0.00" departLane="B4B3_0" departPos="4.10" departSpeed="0.00" departDelay="0.00" arrival="66.70" arrivalLane="B3A3_2" arrivalPos="72.80" arrivalSpeed="14.62" duration="66.70" routeLength="560.63" waitingTime="11.30" waitingCount="2" stopTime="0.00" timeLoss="26.86" rerouteNo="0" devices="tripinfo_flow0.0" vType="vtypeauto" speedFactor="1.06" vaporized=""/>
    <tripinfo id="flow1.2" depart="24.00" departLane="A3B3_0" departPos="4.10" departSpeed="0.00" departDelay="0.00" arrival="67.30" arrivalLane="D3E3_0" arrivalPos="72.80" arrivalSpeed="12.24" duration="43.30" routeLength="368.70" waitingTime="5.60" waitingCount="1" stopTime="0.00" timeLoss="13.27" rerouteNo="0" devices="tripinfo_flow1.2" vType="vtypeauto" speedFactor="0.89" vaporized=""/>
    <tripinfo id="flow0.1" depart="12.00" departLane="B4B3_0" departPos="4.10" departSpeed="0.00" departDelay="0.00" arrival="68.60" arrivalLane="B3A3_2" arrivalPos="72.80" arrivalSpeed="15.02" duration="56.60" routeLength="560.63" waitingTime="0.00" waitingCount="0" stopTime="0.00" timeLoss="17.64" rerouteNo="0" devices="tripinfo_flow0.1" vType="vtypeauto" speedFactor="1.08" vaporized=""/>
    <tripinfo id="flow2.1" depart="12.00" departLane="A0A1_0" departPos="4.10" departSpeed="0.00" departDelay="0.00" arrival="81.10" arrivalLane="C3D3_0" arrivalPos="72.80" arrivalSpeed="11.54" duration="69.10" routeLength="512.81" waitingTime="7.60" waitingCount="1" stopTime="0.00" timeLoss="20.71" rerouteNo="0" devices="tripinfo_flow2.1" vType="vtypeauto" speedFactor="0.83" vaporized=""/>
    <tripinfo id="flow1.4" depart="48.00" departLane="A3B3_0" departPos="4.10" departSpeed="0.00" departDelay="0.00" arrival="82.40" arrivalLane="D3E3_1" arrivalPos="72.80" arrivalSpeed="15.57" duration="34.40" routeLength="368.70" waitingTime="0.70" waitingCount="1" stopTime="0.00" timeLoss="10.74" rerouteNo="0" devices="tripinfo_flow1.4" vType="vtypeauto" speedFactor="1.12" vaporized=""/>
    <tripinfo id="flow1.3" depart="36.00" departLane="A3B3_0" departPos="4.10" departSpeed="0.00" departDelay="0.00" arrival="82.50" arrivalLane="D3E3_0" arrivalPos="72.80" arrivalSpeed="15.10" duration="46.50" routeLength="368.70" waitingTime="8.60" waitingCount="2" stopTime="0.00" timeLoss="22.07" rerouteNo="0" devices="tripinfo_flow1.3" vType="vtypeauto" speedFactor="1.09" vaporized=""/>
    <tripinfo id="flow2.2" depart="24.00" departLane="A0A1_0" departPos="4.10" departSpeed="0.00" departDelay="0.00" arrival="83.00" arrivalLane="C3D3_0" arrivalPos="72.80" arrivalSpeed="12.99" duration="59.00" routeLength="512.81" waitingTime="1.00" waitingCount="1" stopTime="0.00" timeLoss="15.99" rerouteNo="0" devices="tripinfo_flow2.2" vType="vtypeauto" speedFactor="0.94" vaporized=""/>
    <tripinfo id="flow0.2" depart="24.00" departLane="B4B3_0" departPos="4.10" departSpeed="0.00" departDelay="0.00" arrival="83.90" arrivalLane="B3A3_2" arrivalPos="72.80" arrivalSpeed="14.41" duration="59.90" routeLength="560.63" waitingTime="6.40" waitingCount="2" stopTime="0.00" timeLoss="19.58" rerouteNo="0" devices="tripinfo_flow0.2" vType="vtypeauto" speedFactor="1.05" vaporized=""/>
    <tripinfo id="flow0.3" depart="36.00" departLane="B4B3_0" departPos="4.10" departSpeed="0.00" departDelay="0.00" arrival="93.20" arrivalLane="B3A3_2" arrivalPos="72.80" arrivalSpeed="11.87" duration="57.20" routeLength="560.63" waitingTime="0.00" waitingCount="0" stopTime="0.00" timeLoss="7.93" rerouteNo="0" devices="tripinfo_flow0.3" vType="vtypeauto" speedFactor="0.86" vaporized=""/>
    <tripinfo id="flow2.3" depart="36.00" departLane="A0A1_0" departPos="4.10" departSpeed="0.00" departDelay="0.00" arrival="102.50" arrivalLane="C3D3_0" arrivalPos="72.80" arrivalSpeed="14.23" duration="66.50" routeLength="512.81" waitingTime="9.30" waitingCount="3" stopTime="0.00" timeLoss="27.17" rerouteNo="0" devices="tripinfo_flow2.3" vType="vtypeauto" speedFactor="1.03" vaporized=""/>
    <tripinfo id="flow1.5" depart="60.00" departLane="A3B3_0" departPos="4.10" departSpeed="0.00" departDelay="0.00" arrival="102.70" arrivalLane="D3E3_0" arrivalPos="72.80" arrivalSpeed="12.15" duration="42.70" routeLength="368.70" waitingTime="5.60" waitingCount="1" stopTime="0.00" timeLoss="12.39" rerouteNo="0" devices="tripinfo_flow1.5" vType="vtypeauto" speedFactor="0.88" vaporized=""/>
    <tripinfo id="flow1.6" depart="72.00" departLane="A3B3_0" departPos="4.10" departSpeed="0.00" departDelay="0.00" arrival="104.20" arrivalLane="D3E3_0" arrivalPos="72.80" arrivalSpeed="14.85" duration="32.20" routeLength="368.70" waitingTime="0.00" waitingCount="0" stopTime="0.00" timeLoss="9.21" rerouteNo="0" devices="tripinfo_flow1.6" vType="vtypeauto" speedFactor="1.16" vaporized=""/>
    <tripinfo id="flow2.4" depart="48.00" departLane="A0A1_0" departPos="4.10" departSpeed="0.00" departDelay="0.00" arrival="104.40" arrivalLane="C3D3_0" arrivalPos="72.80" arrivalSpeed="13.65" duration="56.40" routeLength="512.81" waitingTime="0.00" waitingCount="0" stopTime="0.00" timeLoss="15.75" rerouteNo="0" devices="tripinfo_flow2.4" vType="vtypeauto" speedFactor="0.99" vaporized=""/>
    <tripinfo id="flow2.5" depart="60.00" departLane="A0A1_0" departPos="4.10" departSpeed="0.00" departDelay="0.00" arrival="118.70" arrivalLane="C3D3_0" arrivalPos="72.80" arrivalSpeed="13.06" duration="58.70" routeLength="512.81" waitingTime="3.10" waitingCount="2" stopTime="0.00" timeLoss="15.83" rerouteNo="0" devices="tripinfo_flow2.5" vType="vtypeauto" speedFactor="0.94" vaporized=""/>
    <tripinfo id="flow0.4" depart="48.00" departLane="B4B3_0" departPos="4.10" departSpeed="0.00" departDelay="0.00" arrival="132.50" arrivalLane="B3A3_2" arrivalPos="72.80" arrivalSpeed="14.51" duration="84.50" routeLength="560.63" waitingTime="21.00" waitingCount="4" stopTime="0.00" timeLoss="44.26" rerouteNo="0" devices="tripinfo_flow0.4" vType="vtypeauto" speedFactor="1.05" vaporized=""/>
    <tripinfo id="flow0.5" depart="60.00" departLane="B4B3_0" departPos="4.10" departSpeed="0.00" departDelay="0.00" arrival="134.20" arrivalLane="B3A3_1" arrivalPos="72.80" arrivalSpeed="12.78" duration="74.20" routeLength="560.63" waitingTime="3.20" waitingCount="1" stopTime="0.00" timeLoss="28.67" rerouteNo="0" devices="tripinfo_flow0.5" vType="vtypeauto" speedFactor="0.93" vaporized=""/>
    <tripinfo id="flow2.6" depart="72.00" departLane="A0A1_0" departPos="4.10" departSpeed="0.00" departDelay="0.00" arrival="134.30" arrivalLane="C3D3_0" arrivalPos="72.80" arrivalSpeed="14.07" duration="62.30" routeLength="512.81" waitingTime="5.80" waitingCount="3" stopTime="0.00" timeLoss="22.64" rerouteNo="0" devices="tripinfo_flow2.6" vType="vtypeauto" speedFactor="1.02" vaporized=""/>
    <tripinfo id="flow1.7" depart="84.00" departLane="A3B3_0" departPos="4.10" departSpeed="0.00" departDelay="0.00" arrival="135.40" arrivalLane="D3E3_0" arrivalPos="72.80" arrivalSpeed="13.42" duration="51.40" routeLength="368.70" waitingTime="12.00" waitingCount="2" stopTime="0.00" timeLoss="24.10" rerouteNo="0" devices="tripinfo_flow1.7" vType="vtypeauto" speedFactor="0.97" vaporized=""/>
    <tripinfo id="flow1.8" depart="96.00" departLane="A3B3_0" departPos="4.10" departSpeed="0.00" departDelay="0.00" arrival="136.50" arrivalLane="D3E3_1" arrivalPos="72.80" arrivalSpeed="12.07" duration="40.50" routeLength="368.70" waitingTime="2.70" waitingCount="1" stopTime="0.00" timeLoss="10.04" rerouteNo="0" devices="tripinfo_flow1.8" vType="vtypeauto" speedFactor="0.87" vaporized=""/>
    <tripinfo id="flow1.10" depart="120.00" departLane="A3B3_0" departPos="4.10" departSpeed="0.00" departDelay="0.00" arrival="148.00" arrivalLane="D3E3_1" arrivalPos="72.80" arrivalSpeed="15.93" duration="28.00" routeLength="368.70" waitingTime="0.00" waitingCount="0" stopTime="0.00" timeLoss="4.99" rerouteNo="0" devices="tripinfo_flow1.10" vType="vtypeauto" speedFactor="1.15" vaporized=""/>
    <tripinfo id="flow1.9" depart="108.00" departLane="A3B3_0" departPos="4.10" departSpeed="0.00" departDelay="0.00" arrival="148.20" arrivalLane="D3E3_0" arrivalPos="72.80" arrivalSpeed="15.66" duration="40.20" routeLength="368.70" waitingTime="4.80" waitingCount="1" stopTime="0.00" timeLoss="16.68" rerouteNo="0" devices="tripinfo_flow1.9" vType="vtypeauto" speedFactor="1.13" vaporized=""/>
    <tripinfo id="flow2.7" depart="84.00" departLane="A0A1_0" departPos="4.10" departSpeed="0.00" departDelay="0.00" arrival="150.90" arrivalLane="C3D3_0" arrivalPos="72.80" arrivalSpeed="12.35" duration="66.90" routeLength="512.81" waitingTime="8.30" waitingCount="2" stopTime="0.00" timeLoss="21.62" rerouteNo="0" devices="tripinfo_flow2.7" vType="vtypeauto" speedFactor="0.89" vaporized=""/>
    <tripinfo id="flow2.8" depart="96.00" departLane="A0A1_0" departPos="4.10" departSpeed="0.00" departDelay="0.00" arrival="153.20" arrivalLane="C3D3_0" arrivalPos="72.80" arrivalSpeed="12.70" duration="57.20" routeLength="512.81" waitingTime="0.00" waitingCount="0" stopTime="0.00" timeLoss="13.16" rerouteNo="0" devices="tripinfo_flow2.8" vType="vtypeauto" speedFactor="0.92" vaporized=""/>
    <tripinfo id="flow0.7" depart="84.00" departLane="B4B3_0" departPos="4.10" departSpeed="0.00" departDelay="0.00" arrival="156.80" arrivalLane="B3A3_0" arrivalPos="72.80" arrivalSpeed="13.95" duration="72.80" routeLength="560.63" waitingTime="6.70" waitingCount="1" stopTime="0.00" timeLoss="31.03" rerouteNo="0" devices="tripinfo_flow0.7" vType="vtypeauto" speedFactor="1.01" vaporized=""/>
    <tripinfo id="flow0.6" depart="72.00" departLane="B4B3_0" departPos="4.10" departSpeed="0.00" departDelay="0.00" arrival="157.00" arrivalLane="B3A3_1" arrivalPos="72.80" arrivalSpeed="12.99" duration="85.00" routeLength="560.63" waitingTime="20.20" waitingCount="3" stopTime="0.00" timeLoss="39.97" rerouteNo="0" devices="tripinfo_flow0.6" vType="vtypeauto" speedFactor="0.94" vaporized=""/>
    <tripinfo id="flow0.8" depart="96.00" departLane="B4B3_0" departPos="4.10" departSpeed="0.00" departDelay="0.00" arrival="160.30" arrivalLane="B3A3_2" arrivalPos="72.80" arrivalSpeed="11.36" duration="64.30" routeLength="560.63" waitingTime="4.30" waitingCount="1" stopTime="0.00" timeLoss="13.24" rerouteNo="0" devices="tripinfo_flow0.8" vType="vtypeauto" speedFactor="0.83" vaporized=""/>
    <tripinfo id="flow0.9" depart="108.00" departLane="B4B3_0" departPos="4.10" departSpeed="0.00" departDelay="0.00" arrival="161.90" arrivalLane="B3A3_2" arrivalPos="72.80" arrivalSpeed="13.08" duration="53.90" routeLength="560.63" waitingTime="0.00" waitingCount="0" stopTime="0.00" timeLoss="9.42" rerouteNo="0" devices="tripinfo_flow0.9" vType="vtypeauto" speedFactor="0.95" vaporized=""/>
    <tripinfo id="flow2.9" depart="108.00" departLane="A0A1_0" departPos="4.10" departSpeed="0.00" departDelay="0.00" arrival="167.90" arrivalLane="C3D3_0" arrivalPos="72.80" arrivalSpeed="12.90" duration="59.90" routeLength="512.81" waitingTime="3.10" waitingCount="2" stopTime="0.00" timeLoss="16.58" rerouteNo="0" devices="tripinfo_flow2.9" vType="vtypeauto" speedFactor="0.93" vaporized=""/>
    <tripinfo id="flow1.12" depart="144.00" departLane="A3B3_0" departPos="4.10" departSpeed="0.00" departDelay="0.00" arrival="182.30" arrivalLane="D3E3_1" arrivalPos="72.80" arrivalSpeed="16.27" duration="38.30" routeLength="368.70" waitingTime="5.70" waitingCount="1" stopTime="0.00" timeLoss="15.80" rerouteNo="0" devices="tripinfo_flow1.12" vType="vtypeauto" speedFactor="1.18" vaporized=""/>
    <tripinfo id="flow2.10" depart="120.00" departLane="A0A1_0" departPos="4.10" departSpeed="0.00" departDelay="0.00" arrival="183.30" arrivalLane="C3D3_0" arrivalPos="72.80" arrivalSpeed="13.95" duration="63.30" routeLength="512.81" waitingTime="8.30" waitingCount="2" stopTime="0.00" timeLoss="23.18" rerouteNo="0" devices="tripinfo_flow2.10" vType="vtypeauto" speedFactor="1.01" vaporized=""/>
    <tripinfo id="flow1.11" depart="132.00" departLane="A3B3_0" departPos="4.10" departSpeed="0.00" departDelay="0.00" arrival="183.90" arrivalLane="D3E3_0" arrivalPos="72.80" arrivalSpeed="13.74" duration="51.90" routeLength="368.70" waitingTime="13.20" waitingCount="2" stopTime="0.00" timeLoss="25.21" rerouteNo="0" devices="tripinfo_flow1.11" vType="vtypeauto" speedFactor="0.99" vaporized=""/>
    <tripinfo id="flow2.11" depart="132.00" departLane="A0A1_0" departPos="4.10" departSpeed="0.00" departDelay="0.00" arrival="186.40" arrivalLane="C3D3_0" arrivalPos="72.80" arrivalSpeed="14.16" duration="54.40" routeLength="512.81" waitingTime="0.00" waitingCount="0" stopTime="0.00" timeLoss="14.89" rerouteNo="0" devices="tripinfo_flow2.11" vType="vtypeauto" speedFactor="1.02" vaporized=""/>
    <tripinfo id="flow2.12" depart="144.00" departLane="A0A1_0" departPos="4.10" departSpeed="0.00" departDelay="0.00" arrival="201.60" arrivalLane="C3D3_0" arrivalPos="72.80" arrivalSpeed="15.20" duration="57.60" routeLength="512.81" waitingTime="4.40" waitingCount="2" stopTime="0.00" timeLoss="21.01" rerouteNo="0" devices="tripinfo_flow2.12" vType="vtypeauto" speedFactor="1.10" vaporized=""/>
    <tripinfo id="flow1.13" depart="156.00" departLane="A3B3_0" departPos="4.10" departSpeed="0.00" departDelay="0.00" arrival="202.60" arrivalLane="D3E3_0" arrivalPos="72.80" arrivalSpeed="14.27" duration="46.60" routeLength="368.70" waitingTime="8.10" waitingCount="2" stopTime="0.00" timeLoss="20.77" rerouteNo="0" devices="tripinfo_flow1.13" vType="vtypeauto" speedFactor="1.03" vaporized=""/>
    <tripinfo id="flow1.14" depart="168.00" departLane="A3B3_0" departPos="4.10" departSpeed="0.00" departDelay="0.00" arrival="202.70" arrivalLane="D3E3_1" arrivalPos="72.80" arrivalSpeed="14.35" duration="34.70" routeLength="368.70" waitingTime="0.20" waitingCount="1" stopTime="0.00" timeLoss="9.09" rerouteNo="0" devices="tripinfo_flow1.14" vType="vtypeauto" speedFactor="1.04" vaporized=""/>
    <tripinfo id="flow0.11" depart="132.00" departLane="B4B3_0" departPos="4.10" departSpeed="0.00" departDelay="0.00" arrival="203.30" arrivalLane="B3A3_1" arrivalPos="72.80" arrivalSpeed="16.18" duration="71.30" routeLength="560.63" waitingTime="4.80" waitingCount="2" stopTime="0.00" timeLoss="35.31" rerouteNo="0" devices="tripinfo_flow0.11" vType="vtypeauto" speedFactor="1.17" vaporized=""/>
    <tripinfo id="flow0.10" depart="120.00" departLane="B4B3_0" departPos="4.10" departSpeed="0.00" departDelay="0.00" arrival="203.40" arrivalLane="B3A3_1" arrivalPos="72.80" arrivalSpeed="16.30" duration="83.40" routeLength="560.63" waitingTime="20.70" waitingCount="3" stopTime="0.00" timeLoss="47.56" rerouteNo="0" devices="tripinfo_flow0.10" vType="vtypeauto" speedFactor="1.18" vaporized=""/>
    <tripinfo id="flow1.15" depart="180.00" departLane="A3B3_0" departPos="4.10" departSpeed="0.00" departDelay="0.00" arrival="218.30" arrivalLane="D3E3_0" arrivalPos="72.80" arrivalSpeed="13.83" duration="38.30" routeLength="368.70" waitingTime="3.60" waitingCount="1" stopTime="0.00" timeLoss="11.69" rerouteNo="0" devices="tripinfo_flow1.15" vType="vtypeauto" speedFactor="1.00" vaporized=""/>
    <tripinfo id="flow0.12" depart="144.00" departLane="B4B3_0" departPos="4.10" departSpeed="0.00" departDelay="0.00" arrival="219.90" arrivalLane="B3A3_1" arrivalPos="72.80" arrivalSpeed="13.51" duration="75.90" routeLength="560.63" waitingTime="9.00" waitingCount="3" stopTime="0.00" timeLoss="32.48" rerouteNo="0" devices="tripinfo_flow0.12" vType="vtypeauto" speedFactor="0.97" vaporized=""/>
    <tripinfo id="flow2.13" depart="156.00" departLane="A0A1_0" departPos="4.10" departSpeed="0.00" departDelay="0.00" arrival="220.40" arrivalLane="C3D3_0" arrivalPos="72.80" arrivalSpeed="13.28" duration="64.40" routeLength="512.81" waitingTime="4.20" waitingCount="1" stopTime="0.00" timeLoss="22.31" rerouteNo="0" devices="tripinfo_flow2.13" vType="vtypeauto" speedFactor="0.96" vaporized=""/>
    <tripinfo id="flow2.14" depart="168.00" departLane="A0A1_0" departPos="4.10" departSpeed="0.00" departDelay="0.00" arrival="222.30" arrivalLane="C3D3_0" arrivalPos="72.80" arrivalSpeed="14.40" duration="54.30" routeLength="512.81" waitingTime="0.00" waitingCount="0" stopTime="0.00" timeLoss="15.55" rerouteNo="0" devices="tripinfo_flow2.14" vType="vtypeauto" speedFactor="1.04" vaporized=""/>
    <tripinfo id="flow0.14" depart="168.00" departLane="B4B3_0" departPos="4.10" departSpeed="0.00" departDelay="0.00" arrival="240.60" arrivalLane="B3A3_0" arrivalPos="72.80" arrivalSpeed="15.11" duration="72.60" routeLength="560.63" waitingTime="8.40" waitingCount="2" stopTime="0.00" timeLoss="33.93" rerouteNo="0" devices="tripinfo_flow0.14" vType="vtypeauto" speedFactor="1.09" vaporized=""/>
    <tripinfo id="flow0.13" depart="156.00" departLane="B4B3_0" departPos="4.10" departSpeed="0.00" departDelay="0.00" arrival="241.20" arrivalLane="B3A3_1" arrivalPos="72.80" arrivalSpeed="12.47" duration="85.20" routeLength="560.63" waitingTime="19.70" waitingCount="2" stopTime="0.00" timeLoss="38.33" rerouteNo="0" devices="tripinfo_flow0.13" vType="vtypeauto" speedFactor="0.90" vaporized=""/>
    <tripinfo id="flow0.15" depart="180.00" departLane="B4B3_0" departPos="4.10" departSpeed="0.00" departDelay="0.00" arrival="241.40" arrivalLane="B3A3_2" arrivalPos="72.80" arrivalSpeed="15.01" duration="61.40" routeLength="560.63" waitingTime="0.70" waitingCount="1" stopTime="0.00" timeLoss="22.63" rerouteNo="0" devices="tripinfo_flow0.15" vType="vtypeauto" speedFactor="1.09" vaporized=""/>
    <tripinfo id="flow2.15" depart="180.00" departLane="A0A1_0" departPos="4.10" departSpeed="0.00" departDelay="0.00" arrival="244.60" arrivalLane="C3D3_0" arrivalPos="72.80" arrivalSpeed="5.97" duration="64.60" routeLength="512.81" waitingTime="3.40" waitingCount="1" stopTime="0.00" timeLoss="19.90" rerouteNo="0" devices="tripinfo_flow2.15" vType="vtypeauto" speedFactor="0.90" vaporized=""/>
    <tripinfo id="flow1.17" depart="204.00" departLane="A3B3_0" departPos="4.10" departSpeed="0.00" departDelay="0.00" arrival="251.70" arrivalLane="D3E3_1" arrivalPos="72.80" arrivalSpeed="14.11" duration="47.70" routeLength="368.70" waitingTime="8.40" waitingCount="2" stopTime="0.00" timeLoss="21.53" rerouteNo="0" devices="tripinfo_flow1.17" vType="vtypeauto" speedFactor="1.02" vaporized=""/>
    <tripinfo id="flow1.16" depart="192.00" departLane="A3B3_0" departPos="4.10" departSpeed="0.00" departDelay="0.00" arrival="252.50" arrivalLane="D3E3_0" arrivalPos="72.80" arrivalSpeed="11.81" duration="60.50" routeLength="368.70" waitingTime="15.30" waitingCount="3" stopTime="0.00" timeLoss="29.20" rerouteNo="0" devices="tripinfo_flow1.16" vType="vtypeauto" speedFactor="0.85" vaporized=""/>
    <tripinfo id="flow2.16" depart="192.00" departLane="A0A1_0" departPos="4.10" departSpeed="0.00" departDelay="0.00" arrival="260.50" arrivalLane="C3D3_0" arrivalPos="72.80" arrivalSpeed="8.05" duration="68.50" routeLength="512.81" waitingTime="5.60" waitingCount="3" stopTime="0.00" timeLoss="21.41" rerouteNo="0" devices="tripinfo_flow2.16" vType="vtypeauto" speedFactor="0.85" vaporized=""/>
    <tripinfo id="flow2.17" depart="204.00" departLane="A0A1_0" departPos="4.10" departSpeed="0.00" departDelay="0.00" arrival="262.20" arrivalLane="C3D3_0" arrivalPos="72.80" arrivalSpeed="11.28" duration="58.20" routeLength="512.81" waitingTime="0.10" waitingCount="1" stopTime="0.00" timeLoss="21.38" rerouteNo="0" devices="tripinfo_flow2.17" vType="vtypeauto" speedFactor="1.10" vaporized=""/>
    <tripinfo id="flow0.17" depart="204.00" departLane="B4B3_0" departPos="4.10" departSpeed="0.00" departDelay="0.00" arrival="263.30" arrivalLane="B3A3_2" arrivalPos="72.80" arrivalSpeed="16.16" duration="59.30" routeLength="560.63" waitingTime="4.70" waitingCount="1" stopTime="0.00" timeLoss="23.18" rerouteNo="0" devices="tripinfo_flow0.17" vType="vtypeauto" speedFactor="1.17" vaporized=""/>
    <tripinfo id="flow0.16" depart="192.00" departLane="B4B3_0" departPos="4.10" departSpeed="0.00" departDelay="0.00" arrival="265.30" arrivalLane="B3A3_0" arrivalPos="72.80" arrivalSpeed="12.11" duration="73.30" routeLength="560.63" waitingTime="10.60" waitingCount="1" stopTime="0.00" timeLoss="25.23" rerouteNo="0" devices="tripinfo_flow0.16" vType="vtypeauto" speedFactor="0.88" vaporized=""/>
    <tripinfo id="flow0.18" depart="216.00" departLane="B4B3_0" departPos="4.10" departSpeed="0.00" departDelay="0.00" arrival="267.60" arrivalLane="B3A3_2" arrivalPos="72.80" arrivalSpeed="13.92" duration="51.60" routeLength="560.63" waitingTime="0.00" waitingCount="0" stopTime="0.00" timeLoss="9.51" rerouteNo="0" devices="tripinfo_flow0.18" vType="vtypeauto" speedFactor="1.00" vaporized=""/>
    <tripinfo id="flow1.19" depart="228.00" departLane="A3B3_0" departPos="4.10" departSpeed="0.00" departDelay="0.00" arrival="267.60" arrivalLane="D3E3_1" arrivalPos="72.80" arrivalSpeed="14.13" duration="39.60" routeLength="368.70" waitingTime="4.40" waitingCount="1" stopTime="0.00" timeLoss="13.66" rerouteNo="0" devices="tripinfo_flow1.19" vType="vtypeauto" speedFactor="1.02" vaporized=""/>
    <tripinfo id="flow1.18" depart="216.00" departLane="A3B3_0" departPos="4.10" departSpeed="0.00" departDelay="0.00" arrival="267.70" arrivalLane="D3E3_0" arrivalPos="72.80" arrivalSpeed="13.76" duration="51.70" routeLength="368.70" waitingTime="12.90" waitingCount="2" stopTime="0.00" timeLoss="25.05" rerouteNo="0" devices="tripinfo_flow1.18" vType="vtypeauto" speedFactor="1.00" vaporized=""/>
    <tripinfo id="flow2.18" depart="216.00" departLane="A0A1_0" departPos="4.10" departSpeed="0.00" departDelay="0.00" arrival="275.40" arrivalLane="C3D3_0" arrivalPos="72.80" arrivalSpeed="12.48" duration="59.40" routeLength="512.81" waitingTime="0.90" waitingCount="2" stopTime="0.00" timeLoss="14.53" rerouteNo="0" devices="tripinfo_flow2.18" vType="vtypeauto" speedFactor="0.90" vaporized=""/>
    <tripinfo id="flow2.19" depart="228.00" departLane="A0A1_0" departPos="4.10" departSpeed="0.00" departDelay="0.00" arrival="294.60" arrivalLane="C3D3_0" arrivalPos="72.80" arrivalSpeed="5.91" duration="66.60" routeLength="512.81" waitingTime="5.80" waitingCount="2" stopTime="0.00" timeLoss="25.05" rerouteNo="0" devices="tripinfo_flow2.19" vType="vtypeauto" speedFactor="0.97" vaporized=""/>
    <tripinfo id="flow1.20" depart="240.00" departLane="A3B3_0" departPos="4.10" departSpeed="0.00" departDelay="0.00" arrival="301.30" arrivalLane="D3E3_0" arrivalPos="72.80" arrivalSpeed="15.51" duration="61.30" routeLength="368.70" waitingTime="19.10" waitingCount="3" stopTime="0.00" timeLoss="37.58" rerouteNo="0" devices="tripinfo_flow1.20" vType="vtypeauto" speedFactor="1.12" vaporized=""/>
    <tripinfo id="flow1.21" depart="252.00" departLane="A3B3_0" departPos="4.10" departSpeed="0.00" departDelay="0.00" arrival="302.10" arrivalLane="D3E3_0" arrivalPos="72.80" arrivalSpeed="12.91" duration="50.10" routeLength="368.70" waitingTime="9.50" waitingCount="2" stopTime="0.00" timeLoss="21.79" rerouteNo="0" devices="tripinfo_flow1.21" vType="vtypeauto" speedFactor="0.94" vaporized=""/>
    <tripinfo id="flow1.22" depart="264.00" departLane="A3B3_0" departPos="4.10" departSpeed="0.00" departDelay="0.00" arrival="305.50" arrivalLane="D3E3_0" arrivalPos="72.80" arrivalSpeed="12.69" duration="41.50" routeLength="368.70" waitingTime="4.60" waitingCount="1" stopTime="0.00" timeLoss="12.46" rerouteNo="0" devices="tripinfo_flow1.22" vType="vtypeauto" speedFactor="0.91" vaporized=""/>
    <tripinfo id="flow1.23" depart="276.00" departLane="A3B3_0" departPos="4.10" departSpeed="0.00" departDelay="0.00" arrival="307.00" arrivalLane="D3E3_0" arrivalPos="72.80" arrivalSpeed="14.11" duration="31.00" routeLength="368.70" waitingTime="0.00" waitingCount="0" stopTime="0.00" timeLoss="5.05" rerouteNo="0" devices="tripinfo_flow1.23" vType="vtypeauto" speedFactor="1.02" vaporized=""/>
    <tripinfo id="flow2.20" depart="240.00" departLane="A0A1_0" departPos="4.10" departSpeed="0.00" departDelay="0.00" arrival="308.70" arrivalLane="C3D3_0" arrivalPos="72.80" arrivalSpeed="14.01" duration="68.70" routeLength="512.81" waitingTime="11.10" waitingCount="2" stopTime="0.00" timeLoss="29.04" rerouteNo="0" devices="tripinfo_flow2.20" vType="vtypeauto" speedFactor="1.02" vaporized=""/>
    <tripinfo id="flow0.20" depart="240.00" departLane="B4B3_0" departPos="4.10" departSpeed="0.00" departDelay="0.00" arrival="312.10" arrivalLane="B3A3_2" arrivalPos="72.80" arrivalSpeed="14.92" duration="72.10" routeLength="560.63" waitingTime="12.20" waitingCount="2" stopTime="0.00" timeLoss="33.12" rerouteNo="0" devices="tripinfo_flow0.20" vType="vtypeauto" speedFactor="1.08" vaporized=""/>
    <tripinfo id="flow0.19" depart="228.00" departLane="B4B3_0" departPos="4.10" departSpeed="0.00" departDelay="0.00" arrival="312.30" arrivalLane="B3A3_0" arrivalPos="72.80" arrivalSpeed="15.81" duration="84.30" routeLength="560.63" waitingTime="22.80" waitingCount="3" stopTime="0.00" timeLoss="47.32" rerouteNo="0" devices="tripinfo_flow0.19" vType="vtypeauto" speedFactor="1.14" vaporized=""/>
    <tripinfo id="flow2.21" depart="252.00" departLane="A0A1_0" departPos="4.10" departSpeed="0.00" departDelay="0.00" arrival="325.40" arrivalLane="C3D3_0" arrivalPos="72.80" arrivalSpeed="12.15" duration="73.40" routeLength="512.81" waitingTime="6.90" waitingCount="1" stopTime="0.00" timeLoss="27.70" rerouteNo="0" devices="tripinfo_flow2.21" vType="vtypeauto" speedFactor="0.88" vaporized=""/>
    <tripinfo id="flow2.22" depart="264.00" departLane="A0A1_0" departPos="4.10" departSpeed="0.00" departDelay="0.00" arrival="327.50" arrivalLane="C3D3_0" arrivalPos="72.80" arrivalSpeed="14.35" duration="63.50" routeLength="512.81" waitingTime="1.50" waitingCount="1" stopTime="0.00" timeLoss="24.71" rerouteNo="0" devices="tripinfo_flow2.22" vType="vtypeauto" speedFactor="1.04" vaporized=""/>
    <tripinfo id="flow0.21" depart="252.00" departLane="B4B3_0" departPos="4.10" departSpeed="0.00" departDelay="0.00" arrival="336.90" arrivalLane="B3A3_2" arrivalPos="72.80" arrivalSpeed="13.69" duration="84.90" routeLength="560.63" waitingTime="17.10" waitingCount="3" stopTime="0.00" timeLoss="42.14" rerouteNo="0" devices="tripinfo_flow0.21" vType="vtypeauto" speedFactor="0.99" vaporized=""/>
    <tripinfo id="flow0.22" depart="264.00" departLane="B4B3_0" departPos="4.10" departSpeed="0.00" departDelay="0.00" arrival="338.70" arrivalLane="B3A3_2" arrivalPos="72.80" arrivalSpeed="12.55" duration="74.70" routeLength="560.63" waitingTime="5.50" waitingCount="1" stopTime="0.00" timeLoss="28.14" rerouteNo="0" devices="tripinfo_flow0.22" vType="vtypeauto" speedFactor="0.91" vaporized=""/>
    <tripinfo id="flow2.23" depart="276.00" departLane="A0A1_0" departPos="4.10" departSpeed="0.00" departDelay="0.00" arrival="347.50" arrivalLane="C3D3_0" arrivalPos="72.80" arrivalSpeed="5.86" duration="71.50" routeLength="512.81" waitingTime="8.80" waitingCount="2" stopTime="0.00" timeLoss="30.14" rerouteNo="0" devices="tripinfo_flow2.23" vType="vtypeauto" speedFactor="0.97" vaporized=""/>
    <tripinfo id="flow2.24" depart="288.00" departLane="A0A1_0" departPos="4.10" departSpeed="0.00" departDelay="0.00" arrival="347.80" arrivalLane="C3D3_1" arrivalPos="72.80" arrivalSpeed="9.68" duration="59.80" routeLength="512.81" waitingTime="0.00" waitingCount="0" stopTime="0.00" timeLoss="17.64" rerouteNo="0" devices="tripinfo_flow2.24" vType="vtypeauto" speedFactor="0.96" vaporized=""/>
    <tripinfo id="flow1.24" depart="288.00" departLane="A3B3_0" departPos="4.10" departSpeed="0.00" departDelay="0.00" arrival="354.50" arrivalLane="D3E3_0" arrivalPos="72.80" arrivalSpeed="14.66" duration="66.50" routeLength="368.70" waitingTime="23.60" waitingCount="3" stopTime="0.00" timeLoss="41.29" rerouteNo="0" devices="tripinfo_flow1.24" vType="vtypeauto" speedFactor="1.06" vaporized=""/>