<?xml version="1.0" encoding="UTF-8"?>

<!-- generated on 2024-10-29 12:47:22 by Eclipse SUMO sumo Version 1.20.0
<configuration xmlns:xsi="http://www.w3.org/2001/XMLSchema-instance" xsi:noNamespaceSchemaLocation="http://sumo.dlr.de/xsd/sumoConfiguration.xsd">

    <input>
        <net-file value="./sim_cfg_grid_3_lanes/grid.net.xml"/>
        <route-files value="./sim_cfg_grid_3_lanes/7x1.rou.xml"/>
    </input>

    <output>
        <tripinfo-output value="./sim_cfg_grid_3_lanes/tripinfo_0.691.xml"/>
    </output>

    <time>
        <begin value="0"/>
        <end value="500"/>
        <step-length value="0.1"/>
    </time>

    <traci_server>
        <remote-port value="49612"/>
    </traci_server>

    <gui_only>
        <gui-settings-file value="./sim_cfg_grid_3_lanes/gui_settings.xml"/>
    </gui_only>

</configuration>
-->

<tripinfos xmlns:xsi="http://www.w3.org/2001/XMLSchema-instance" xsi:noNamespaceSchemaLocation="http://sumo.dlr.de/xsd/tripinfo_file.xsd">
    <tripinfo id="flow1.3" depart="8.40" departLane="A3B3_0" departPos="4.10" departSpeed="0.00" departDelay="5.40" arrival="79.40" arrivalLane="D3E3_2" arrivalPos="72.80" arrivalSpeed="16.08" duration="71.00" routeLength="368.70" waitingTime="36.40" waitingCount="1" stopTime="0.00" timeLoss="48.03" rerouteNo="0" devices="tripinfo_flow1.3" vType="vtypeauto" speedFactor="1.16" vaporized=""/>
    <tripinfo id="flow1.0" depart="0.00" departLane="A3B3_0" departPos="4.10" departSpeed="0.00" departDelay="0.00" arrival="79.90" arrivalLane="D3E3_0" arrivalPos="72.80" arrivalSpeed="12.91" duration="79.90" routeLength="368.70" waitingTime="40.20" waitingCount="2" stopTime="0.00" timeLoss="51.56" rerouteNo="0" devices="tripinfo_flow1.0" vType="vtypeauto" speedFactor="0.94" vaporized=""/>
    <tripinfo id="flow1.1" depart="2.80" departLane="A3B3_0" departPos="4.10" departSpeed="0.00" departDelay="1.80" arrival="80.10" arrivalLane="D3E3_1" arrivalPos="72.80" arrivalSpeed="12.23" duration="77.30" routeLength="368.70" waitingTime="36.20" waitingCount="2" stopTime="0.00" timeLoss="47.35" rerouteNo="0" devices="tripinfo_flow1.1" vType="vtypeauto" speedFactor="0.89" vaporized=""/>
    <tripinfo id="flow1.6" depart="16.60" departLane="A3B3_0" departPos="4.10" departSpeed="0.00" departDelay="10.60" arrival="80.80" arrivalLane="D3E3_2" arrivalPos="72.80" arrivalSpeed="16.33" duration="64.20" routeLength="368.70" waitingTime="24.40" waitingCount="1" stopTime="0.00" timeLoss="41.65" rerouteNo="0" devices="tripinfo_flow1.6" vType="vtypeauto" speedFactor="1.18" vaporized=""/>
    <tripinfo id="flow1.2" depart="5.60" departLane="A3B3_0" departPos="4.10" departSpeed="0.00" departDelay="3.60" arrival="81.40" arrivalLane="D3E3_0" arrivalPos="72.80" arrivalSpeed="15.48" duration="75.80" routeLength="368.70" waitingTime="29.00" waitingCount="1" stopTime="0.00" timeLoss="52.07" rerouteNo="0" devices="tripinfo_flow1.2" vType="vtypeauto" speedFactor="1.12" vaporized=""/>
    <tripinfo id="flow1.5" depart="13.90" departLane="A3B3_0" departPos="4.10" departSpeed="0.00" departDelay="8.90" arrival="81.60" arrivalLane="D3E3_1" arrivalPos="72.80" arrivalSpeed="15.13" duration="67.70" routeLength="368.70" waitingTime="28.70" waitingCount="1" stopTime="0.00" timeLoss="44.68" rerouteNo="0" devices="tripinfo_flow1.5" vType="vtypeauto" speedFactor="1.15" vaporized=""/>
    <tripinfo id="flow2.0" depart="0.00" departLane="A0A1_0" departPos="4.10" departSpeed="0.00" departDelay="0.00" arrival="82.80" arrivalLane="C3D3_0" arrivalPos="72.80" arrivalSpeed="12.17" duration="82.80" routeLength="512.81" waitingTime="24.80" waitingCount="2" stopTime="0.00" timeLoss="42.95" rerouteNo="0" devices="tripinfo_flow2.0" vType="vtypeauto" speedFactor="1.01" vaporized=""/>
    <tripinfo id="flow1.7" depart="19.40" departLane="A3B3_0" departPos="4.10" departSpeed="0.00" departDelay="12.40" arrival="83.10" arrivalLane="D3E3_1" arrivalPos="72.80" arrivalSpeed="14.34" duration="63.70" routeLength="368.70" waitingTime="23.70" waitingCount="1" stopTime="0.00" timeLoss="38.05" rerouteNo="0" devices="tripinfo_flow1.7" vType="vtypeauto" speedFactor="1.04" vaporized=""/>
    <tripinfo id="flow1.11" depart="30.40" departLane="A3B3_0" departPos="4.10" departSpeed="0.00" departDelay="19.40" arrival="83.10" arrivalLane="D3E3_2" arrivalPos="72.80" arrivalSpeed="12.59" duration="52.70" routeLength="368.70" waitingTime="9.50" waitingCount="1" stopTime="0.00" timeLoss="23.63" rerouteNo="0" devices="tripinfo_flow1.11" vType="vtypeauto" speedFactor="0.91" vaporized=""/>
    <tripinfo id="flow1.4" depart="11.20" departLane="A3B3_0" departPos="4.10" departSpeed="0.00" departDelay="7.20" arrival="83.30" arrivalLane="D3E3_0" arrivalPos="72.80" arrivalSpeed="12.02" duration="72.10" routeLength="368.70" waitingTime="27.20" waitingCount="1" stopTime="0.00" timeLoss="41.64" rerouteNo="0" devices="tripinfo_flow1.4" vType="vtypeauto" speedFactor="0.87" vaporized=""/>
    <tripinfo id="flow2.7" depart="19.40" departLane="A0A1_0" departPos="4.10" departSpeed="0.00" departDelay="12.40" arrival="84.30" arrivalLane="C3D3_0" arrivalPos="72.80" arrivalSpeed="14.21" duration="64.90" routeLength="512.81" waitingTime="0.30" waitingCount="2" stopTime="0.00" timeLoss="26.19" rerouteNo="0" devices="tripinfo_flow2.7" vType="vtypeauto" speedFactor="1.04" vaporized=""/>
    <tripinfo id="flow1.9" depart="24.90" departLane="A3B3_0" departPos="4.10" departSpeed="0.00" departDelay="15.90" arrival="84.60" arrivalLane="D3E3_1" arrivalPos="72.80" arrivalSpeed="13.75" duration="59.70" routeLength="368.70" waitingTime="14.80" waitingCount="2" stopTime="0.00" timeLoss="33.01" rerouteNo="0" devices="tripinfo_flow1.9" vType="vtypeauto" speedFactor="1.00" vaporized=""/>
    <tripinfo id="flow1.12" depart="33.30" departLane="A3B3_0" departPos="4.10" departSpeed="0.00" departDelay="21.30" arrival="84.60" arrivalLane="D3E3_2" arrivalPos="72.80" arrivalSpeed="14.63" duration="51.30" routeLength="368.70" waitingTime="7.60" waitingCount="1" stopTime="0.00" timeLoss="26.09" rerouteNo="0" devices="tripinfo_flow1.12" vType="vtypeauto" speedFactor="1.06" vaporized=""/>
    <tripinfo id="flow1.8" depart="22.10" departLane="A3B3_0" departPos="4.10" departSpeed="0.00" departDelay="14.10" arrival="85.00" arrivalLane="D3E3_0" arrivalPos="72.80" arrivalSpeed="11.73" duration="62.90" routeLength="368.70" waitingTime="16.30" waitingCount="2" stopTime="0.00" timeLoss="31.68" rerouteNo="0" devices="tripinfo_flow1.8" vType="vtypeauto" speedFactor="0.85" vaporized=""/>
    <tripinfo id="flow1.13" depart="36.10" departLane="A3B3_0" departPos="4.10" departSpeed="0.00" departDelay="23.10" arrival="86.00" arrivalLane="D3E3_1" arrivalPos="72.80" arrivalSpeed="14.99" duration="49.90" routeLength="368.70" waitingTime="7.20" waitingCount="1" stopTime="0.00" timeLoss="25.48" rerouteNo="0" devices="tripinfo_flow1.13" vType="vtypeauto" speedFactor="1.09" vaporized=""/>
    <tripinfo id="flow1.14" depart="38.80" departLane="A3B3_0" departPos="4.10" departSpeed="0.00" departDelay="24.80" arrival="86.20" arrivalLane="D3E3_2" arrivalPos="72.80" arrivalSpeed="13.55" duration="47.40" routeLength="368.70" waitingTime="4.30" waitingCount="1" stopTime="0.00" timeLoss="20.11" rerouteNo="0" devices="tripinfo_flow1.14" vType="vtypeauto" speedFactor="0.98" vaporized=""/>
    <tripinfo id="flow1.10" depart="27.60" departLane="A3B3_0" departPos="4.10" departSpeed="0.00" departDelay="17.60" arrival="86.50" arrivalLane="D3E3_0" arrivalPos="72.80" arrivalSpeed="14.31" duration="58.90" routeLength="368.70" waitingTime="8.40" waitingCount="2" stopTime="0.00" timeLoss="35.19" rerouteNo="0" devices="tripinfo_flow1.10" vType="vtypeauto" speedFactor="1.12" vaporized=""/>
    <tripinfo id="flow1.18" depart="49.90" departLane="A3B3_0" departPos="4.10" departSpeed="0.00" departDelay="31.90" arrival="87.70" arrivalLane="D3E3_2" arrivalPos="72.80" arrivalSpeed="13.29" duration="37.80" routeLength="368.70" waitingTime="0.00" waitingCount="0" stopTime="0.00" timeLoss="10.13" rerouteNo="0" devices="tripinfo_flow1.18" vType="vtypeauto" speedFactor="0.96" vaporized=""/>
    <tripinfo id="flow1.16" depart="44.30" departLane="A3B3_0" departPos="4.10" departSpeed="0.00" departDelay="28.30" arrival="88.00" arrivalLane="D3E3_1" arrivalPos="72.80" arrivalSpeed="12.52" duration="43.70" routeLength="368.70" waitingTime="0.00" waitingCount="0" stopTime="0.00" timeLoss="14.35" rerouteNo="0" devices="tripinfo_flow1.16" vType="vtypeauto" speedFactor="0.91" vaporized=""/>
    <tripinfo id="flow1.15" depart="41.50" departLane="A3B3_0" departPos="4.10" departSpeed="0.00" departDelay="26.50" arrival="88.20" arrivalLane="D3E3_0" arrivalPos="72.80" arrivalSpeed="12.28" duration="46.70" routeLength="368.70" waitingTime="3.80" waitingCount="1" stopTime="0.00" timeLoss="16.94" rerouteNo="0" devices="tripinfo_flow1.15" vType="vtypeauto" speedFactor="0.89" vaporized=""/>
    <tripinfo id="flow1.17" depart="47.10" departLane="A3B3_0" departPos="4.10" departSpeed="0.00" departDelay="30.10" arrival="89.80" arrivalLane="D3E3_0" arrivalPos="72.80" arrivalSpeed="13.13" duration="42.70" routeLength="368.70" waitingTime="0.00" waitingCount="0" stopTime="0.00" timeLoss="14.78" rerouteNo="0" devices="tripinfo_flow1.17" vType="vtypeauto" speedFactor="0.95" vaporized=""/>
    <tripinfo id="flow2.1" depart="2.80" departLane="A0A1_0" departPos="4.10" departSpeed="0.00" departDelay="1.80" arrival="96.50" arrivalLane="C3D3_0" arrivalPos="72.80" arrivalSpeed="12.98" duration="93.70" routeLength="512.81" waitingTime="23.20" waitingCount="5" stopTime="0.00" timeLoss="50.68" rerouteNo="0" devices="tripinfo_flow2.1" vType="vtypeauto" speedFactor="0.94" vaporized=""/>
    <tripinfo id="flow2.8" depart="22.20" departLane="A0A1_0" departPos="4.10" departSpeed="0.00" departDelay="14.20" arrival="99.90" arrivalLane="C3D3_0" arrivalPos="72.80" arrivalSpeed="11.82" duration="77.70" routeLength="512.81" waitingTime="12.60" waitingCount="3" stopTime="0.00" timeLoss="30.52" rerouteNo="0" devices="tripinfo_flow2.8" vType="vtypeauto" speedFactor="0.85" vaporized=""/>
    <tripinfo id="flow0.7" depart="12.30" departLane="B4B3_0" departPos="4.10" departSpeed="0.00" departDelay="5.30" arrival="107.40" arrivalLane="B3A3_2" arrivalPos="72.80" arrivalSpeed="15.14" duration="95.10" routeLength="560.63" waitingTime="39.20" waitingCount="2" stopTime="0.00" timeLoss="56.43" rerouteNo="0" devices="tripinfo_flow0.7" vType="vtypeauto" speedFactor="1.09" vaporized=""/>
    <tripinfo id="flow2.2" depart="5.50" departLane="A0A1_0" departPos="4.10" departSpeed="0.00" departDelay="3.50" arrival="112.40" arrivalLane="C3D3_0" arrivalPos="72.80" arrivalSpeed="13.66" duration="106.90" routeLength="512.81" waitingTime="25.00" waitingCount="5" stopTime="0.00" timeLoss="66.28" rerouteNo="0" devices="tripinfo_flow2.2" vType="vtypeauto" speedFactor="0.99" vaporized=""/>
    <tripinfo id="flow5.3" depart="8.40" departLane="D4D3_0" departPos="4.10" departSpeed="0.00" departDelay="5.40" arrival="112.50" arrivalLane="D1D0_1" arrivalPos="72.80" arrivalSpeed="12.25" duration="104.10" routeLength="368.70" waitingTime="58.80" waitingCount="2" stopTime="0.00" timeLoss="74.19" rerouteNo="0" devices="tripinfo_flow5.3" vType="vtypeauto" speedFactor="0.89" vaporized=""/>
    <tripinfo id="flow5.4" depart="11.20" departLane="D4D3_0" departPos="4.10" departSpeed="0.00" departDelay="7.20" arrival="113.50" arrivalLane="D1D0_2" arrivalPos="72.80" arrivalSpeed="12.93" duration="102.30" routeLength="368.70" waitingTime="52.10" waitingCount="2" stopTime="0.00" timeLoss="73.80" rerouteNo="0" devices="tripinfo_flow5.4" vType="vtypeauto" speedFactor="0.93" vaporized=""/>
    <tripinfo id="flow2.9" depart="25.00" departLane="A0A1_0" departPos="4.10" departSpeed="0.00" departDelay="16.00" arrival="115.00" arrivalLane="C3D3_0" arrivalPos="72.80" arrivalSpeed="12.44" duration="90.00" routeLength="512.81" waitingTime="23.40" waitingCount="5" stopTime="0.00" timeLoss="45.13" rerouteNo="0" devices="tripinfo_flow2.9" vType="vtypeauto" speedFactor="0.90" vaporized=""/>
    <tripinfo id="flow5.9" depart="25.20" departLane="D4D3_0" departPos="4.10" departSpeed="0.00" departDelay="16.20" arrival="115.10" arrivalLane="D1D0_2" arrivalPos="72.80" arrivalSpeed="13.43" duration="89.90" routeLength="368.70" waitingTime="38.00" waitingCount="2" stopTime="0.00" timeLoss="62.48" rerouteNo="0" devices="tripinfo_flow5.9" vType="vtypeauto" speedFactor="0.97" vaporized=""/>
    <tripinfo id="flow2.3" depart="8.30" departLane="A0A1_0" departPos="4.10" departSpeed="0.00" departDelay="5.30" arrival="116.60" arrivalLane="C3D3_0" arrivalPos="72.80" arrivalSpeed="14.05" duration="108.30" routeLength="512.81" waitingTime="27.50" waitingCount="6" stopTime="0.00" timeLoss="68.59" rerouteNo="0" devices="tripinfo_flow2.3" vType="vtypeauto" speedFactor="1.02" vaporized=""/>
    <tripinfo id="flow5.12" depart="33.60" departLane="D4D3_0" departPos="4.10" departSpeed="0.00" departDelay="21.60" arrival="116.70" arrivalLane="D1D0_2" arrivalPos="72.80" arrivalSpeed="13.63" duration="83.10" routeLength="368.70" waitingTime="29.50" waitingCount="2" stopTime="0.00" timeLoss="55.99" rerouteNo="0" devices="tripinfo_flow5.12" vType="vtypeauto" speedFactor="0.98" vaporized=""/>
    <tripinfo id="flow5.15" depart="42.10" departLane="D4D3_0" departPos="4.10" departSpeed="0.00" departDelay="27.10" arrival="118.10" arrivalLane="D1D0_2" arrivalPos="72.80" arrivalSpeed="14.65" duration="76.00" routeLength="368.70" waitingTime="21.50" waitingCount="2" stopTime="0.00" timeLoss="50.88" rerouteNo="0" devices="tripinfo_flow5.15" vType="vtypeauto" speedFactor="1.06" vaporized=""/>
    <tripinfo id="flow2.11" depart="30.50" departLane="A0A1_0" departPos="4.10" departSpeed="0.00" departDelay="19.50" arrival="118.50" arrivalLane="C3D3_0" arrivalPos="72.80" arrivalSpeed="14.41" duration="88.00" routeLength="512.81" waitingTime="21.60" waitingCount="1" stopTime="0.00" timeLoss="49.29" rerouteNo="0" devices="tripinfo_flow2.11" vType="vtypeauto" speedFactor="1.04" vaporized=""/>
    <tripinfo id="flow5.1" depart="2.80" departLane="D4D3_0" departPos="4.10" departSpeed="0.00" departDelay="1.80" arrival="119.60" arrivalLane="D1D0_1" arrivalPos="72.80" arrivalSpeed="14.23" duration="116.80" routeLength="368.70" waitingTime="65.00" waitingCount="4" stopTime="0.00" timeLoss="90.90" rerouteNo="0" devices="tripinfo_flow5.1" vType="vtypeauto" speedFactor="1.03" vaporized=""/>
    <tripinfo id="flow5.18" depart="50.40" departLane="D4D3_0" departPos="4.10" departSpeed="0.00" departDelay="32.40" arrival="119.70" arrivalLane="D1D0_2" arrivalPos="72.80" arrivalSpeed="13.91" duration="69.30" routeLength="368.70" waitingTime="27.30" waitingCount="1" stopTime="0.00" timeLoss="42.96" rerouteNo="0" devices="tripinfo_flow5.18" vType="vtypeauto" speedFactor="1.01" vaporized=""/>
    <tripinfo id="flow0.0" depart="0.00" departLane="B4B3_0" departPos="4.10" departSpeed="0.00" departDelay="0.00" arrival="120.00" arrivalLane="B3A3_2" arrivalPos="72.80" arrivalSpeed="14.67" duration="120.00" routeLength="560.63" waitingTime="60.00" waitingCount="3" stopTime="0.00" timeLoss="80.14" rerouteNo="0" devices="tripinfo_flow0.0" vType="vtypeauto" speedFactor="1.06" vaporized=""/>
    <tripinfo id="flow2.5" depart="13.90" departLane="A0A1_0" departPos="4.10" departSpeed="0.00" departDelay="8.90" arrival="120.90" arrivalLane="C3D3_0" arrivalPos="72.80" arrivalSpeed="13.92" duration="107.00" routeLength="512.81" waitingTime="26.00" waitingCount="6" stopTime="0.00" timeLoss="66.88" rerouteNo="0" devices="tripinfo_flow2.5" vType="vtypeauto" speedFactor="1.01" vaporized=""/>
    <tripinfo id="flow5.19" depart="53.20" departLane="D4D3_0" departPos="4.10" departSpeed="0.00" departDelay="34.20" arrival="121.20" arrivalLane="D1D0_2" arrivalPos="72.80" arrivalSpeed="14.81" duration="68.00" routeLength="368.70" waitingTime="23.40" waitingCount="1" stopTime="0.00" timeLoss="43.16" rerouteNo="0" devices="tripinfo_flow5.19" vType="vtypeauto" speedFactor="1.07" vaporized=""/>
    <tripinfo id="flow5.2" depart="5.60" departLane="D4D3_0" departPos="4.10" departSpeed="0.00" departDelay="3.60" arrival="121.70" arrivalLane="D1D0_1" arrivalPos="72.80" arrivalSpeed="12.96" duration="116.10" routeLength="368.70" waitingTime="54.50" waitingCount="3" stopTime="0.00" timeLoss="87.84" rerouteNo="0" devices="tripinfo_flow5.2" vType="vtypeauto" speedFactor="0.94" vaporized=""/>
    <tripinfo id="flow5.20" depart="56.00" departLane="D4D3_0" departPos="4.10" departSpeed="0.00" departDelay="36.00" arrival="122.60" arrivalLane="D1D0_2" arrivalPos="72.80" arrivalSpeed="15.97" duration="66.60" routeLength="368.70" waitingTime="21.50" waitingCount="1" stopTime="0.00" timeLoss="43.54" rerouteNo="0" devices="tripinfo_flow5.20" vType="vtypeauto" speedFactor="1.15" vaporized=""/>
    <tripinfo id="flow2.13" depart="36.10" departLane="A0A1_0" departPos="4.10" departSpeed="0.00" departDelay="23.10" arrival="122.90" arrivalLane="C3D3_0" arrivalPos="72.80" arrivalSpeed="14.30" duration="86.80" routeLength="512.81" waitingTime="22.60" waitingCount="2" stopTime="0.00" timeLoss="47.82" rerouteNo="0" devices="tripinfo_flow2.13" vType="vtypeauto" speedFactor="1.03" vaporized=""/>
    <tripinfo id="flow5.7" depart="19.70" departLane="D4D3_0" departPos="4.10" departSpeed="0.00" departDelay="12.70" arrival="123.60" arrivalLane="D1D0_1" arrivalPos="72.80" arrivalSpeed="12.43" duration="103.90" routeLength="368.70" waitingTime="51.10" waitingCount="2" stopTime="0.00" timeLoss="74.35" rerouteNo="0" devices="tripinfo_flow5.7" vType="vtypeauto" speedFactor="0.90" vaporized=""/>
    <tripinfo id="flow0.8" depart="13.90" departLane="B4B3_0" departPos="4.10" departSpeed="0.00" departDelay="5.90" arrival="124.10" arrivalLane="B3A3_2" arrivalPos="72.80" arrivalSpeed="12.12" duration="110.20" routeLength="560.63" waitingTime="32.70" waitingCount="7" stopTime="0.00" timeLoss="62.03" rerouteNo="0" devices="tripinfo_flow0.8" vType="vtypeauto" speedFactor="0.88" vaporized=""/>
    <tripinfo id="flow5.24" depart="67.20" departLane="D4D3_0" departPos="4.10" departSpeed="0.00" departDelay="43.20" arrival="124.20" arrivalLane="D1D0_2" arrivalPos="72.80" arrivalSpeed="14.39" duration="57.00" routeLength="368.70" waitingTime="12.20" waitingCount="1" stopTime="0.00" timeLoss="31.47" rerouteNo="0" devices="tripinfo_flow5.24" vType="vtypeauto" speedFactor="1.04" vaporized=""/>
    <tripinfo id="flow5.10" depart="28.00" departLane="D4D3_0" departPos="4.10" departSpeed="0.00" departDelay="18.00" arrival="125.40" arrivalLane="D1D0_1" arrivalPos="72.80" arrivalSpeed="12.25" duration="97.40" routeLength="368.70" waitingTime="46.20" waitingCount="3" stopTime="0.00" timeLoss="67.25" rerouteNo="0" devices="tripinfo_flow5.10" vType="vtypeauto" speedFactor="0.88" vaporized=""/>
    <tripinfo id="flow5.27" depart="75.40" departLane="D4D3_0" departPos="4.10" departSpeed="0.00" departDelay="48.40" arrival="125.80" arrivalLane="D1D0_2" arrivalPos="72.80" arrivalSpeed="14.28" duration="50.40" routeLength="368.70" waitingTime="1.40" waitingCount="1" stopTime="0.00" timeLoss="24.57" rerouteNo="0" devices="tripinfo_flow5.27" vType="vtypeauto" speedFactor="1.03" vaporized=""/>
    <tripinfo id="flow2.15" depart="41.70" departLane="A0A1_0" departPos="4.10" departSpeed="0.00" departDelay="26.70" arrival="126.40" arrivalLane="C3D3_0" arrivalPos="72.80" arrivalSpeed="11.56" duration="84.70" routeLength="512.81" waitingTime="17.00" waitingCount="2" stopTime="0.00" timeLoss="36.40" rerouteNo="0" devices="tripinfo_flow2.15" vType="vtypeauto" speedFactor="0.83" vaporized=""/>
    <tripinfo id="flow5.13" depart="36.40" departLane="D4D3_0" departPos="4.10" departSpeed="0.00" departDelay="23.40" arrival="126.90" arrivalLane="D1D0_1" arrivalPos="72.80" arrivalSpeed="13.33" duration="90.50" routeLength="368.70" waitingTime="34.90" waitingCount="3" stopTime="0.00" timeLoss="63.03" rerouteNo="0" devices="tripinfo_flow5.13" vType="vtypeauto" speedFactor="0.97" vaporized=""/>
    <tripinfo id="flow2.6" depart="16.60" departLane="A0A1_0" departPos="4.10" departSpeed="0.00" departDelay="10.60" arrival="127.90" arrivalLane="C3D3_0" arrivalPos="72.80" arrivalSpeed="14.48" duration="111.30" routeLength="512.81" waitingTime="25.00" waitingCount="6" stopTime="0.00" timeLoss="74.70" rerouteNo="0" devices="tripinfo_flow2.6" vType="vtypeauto" speedFactor="1.10" vaporized=""/>
    <tripinfo id="flow5.0" depart="0.00" departLane="D4D3_0" departPos="4.10" departSpeed="0.00" departDelay="0.00" arrival="128.00" arrivalLane="D1D0_0" arrivalPos="72.80" arrivalSpeed="11.51" duration="128.00" routeLength="368.70" waitingTime="62.50" waitingCount="4" stopTime="0.00" timeLoss="96.03" rerouteNo="0" devices="tripinfo_flow5.0" vType="vtypeauto" speedFactor="0.83" vaporized=""/>
    <tripinfo id="flow5.30" depart="83.80" departLane="D4D3_0" departPos="4.10" departSpeed="0.00" departDelay="53.80" arrival="128.00" arrivalLane="D1D0_2" arrivalPos="72.80" arrivalSpeed="12.67" duration="44.20" routeLength="368.70" waitingTime="0.00" waitingCount="0" stopTime="0.00" timeLoss="15.20" rerouteNo="0" devices="tripinfo_flow5.30" vType="vtypeauto" speedFactor="0.92" vaporized=""/>
    <tripinfo id="flow5.16" depart="44.90" departLane="D4D3_0" departPos="4.10" departSpeed="0.00" departDelay="28.90" arrival="128.50" arrivalLane="D1D0_1" arrivalPos="72.80" arrivalSpeed="13.26" duration="83.60" routeLength="368.70" waitingTime="24.50" waitingCount="2" stopTime="0.00" timeLoss="55.81" rerouteNo="0" devices="tripinfo_flow5.16" vType="vtypeauto" speedFactor="0.96" vaporized=""/>
    <tripinfo id="flow5.5" depart="14.10" departLane="D4D3_0" departPos="4.10" departSpeed="0.00" departDelay="9.10" arrival="129.50" arrivalLane="D1D0_0" arrivalPos="72.80" arrivalSpeed="14.05" duration="115.40" routeLength="368.70" waitingTime="48.90" waitingCount="3" stopTime="0.00" timeLoss="89.37" rerouteNo="0" devices="tripinfo_flow5.5" vType="vtypeauto" speedFactor="1.02" vaporized=""/>
    <tripinfo id="flow5.31" depart="86.60" departLane="D4D3_0" departPos="4.10" departSpeed="0.00" departDelay="55.60" arrival="129.60" arrivalLane="D1D0_2" arrivalPos="72.80" arrivalSpeed="12.89" duration="43.00" routeLength="368.70" waitingTime="0.00" waitingCount="0" stopTime="0.00" timeLoss="14.40" rerouteNo="0" devices="tripinfo_flow5.31" vType="vtypeauto" speedFactor="0.93" vaporized=""/>
    <tripinfo id="flow2.12" depart="33.30" departLane="A0A1_0" departPos="4.10" departSpeed="0.00" departDelay="21.30" arrival="130.00" arrivalLane="C3D3_0" arrivalPos="72.80" arrivalSpeed="13.18" duration="96.70" routeLength="512.81" waitingTime="14.10" waitingCount="3" stopTime="0.00" timeLoss="54.47" rerouteNo="0" devices="tripinfo_flow2.12" vType="vtypeauto" speedFactor="0.96" vaporized=""/>
    <tripinfo id="flow5.22" depart="61.60" departLane="D4D3_0" departPos="4.10" departSpeed="0.00" departDelay="39.60" arrival="130.00" arrivalLane="D1D0_1" arrivalPos="72.80" arrivalSpeed="14.02" duration="68.40" routeLength="368.70" waitingTime="17.70" waitingCount="1" stopTime="0.00" timeLoss="42.22" rerouteNo="0" devices="tripinfo_flow5.22" vType="vtypeauto" speedFactor="1.02" vaporized=""/>
    <tripinfo id="flow5.6" depart="16.90" departLane="D4D3_0" departPos="4.10" departSpeed="0.00" departDelay="10.90" arrival="131.10" arrivalLane="D1D0_0" arrivalPos="72.80" arrivalSpeed="13.24" duration="114.20" routeLength="368.70" waitingTime="53.80" waitingCount="4" stopTime="0.00" timeLoss="86.40" rerouteNo="0" devices="tripinfo_flow5.6" vType="vtypeauto" speedFactor="0.96" vaporized=""/>
    <tripinfo id="flow5.33" depart="92.20" departLane="D4D3_0" departPos="4.10" departSpeed="0.00" departDelay="59.20" arrival="131.10" arrivalLane="D1D0_2" arrivalPos="72.80" arrivalSpeed="15.30" duration="38.90" routeLength="368.70" waitingTime="0.00" waitingCount="0" stopTime="0.00" timeLoss="14.92" rerouteNo="0" devices="tripinfo_flow5.33" vType="vtypeauto" speedFactor="1.11" vaporized=""/>
    <tripinfo id="flow0.10" depart="18.90" departLane="B4B3_0" departPos="4.10" departSpeed="0.00" departDelay="8.90" arrival="131.20" arrivalLane="B3A3_2" arrivalPos="72.80" arrivalSpeed="15.03" duration="112.30" routeLength="560.63" waitingTime="40.30" waitingCount="6" stopTime="0.00" timeLoss="73.36" rerouteNo="0" devices="tripinfo_flow0.10" vType="vtypeauto" speedFactor="1.08" vaporized=""/>
    <tripinfo id="flow5.25" depart="70.00" departLane="D4D3_0" departPos="4.10" departSpeed="0.00" departDelay="45.00" arrival="131.40" arrivalLane="D1D0_1" arrivalPos="72.80" arrivalSpeed="15.57" duration="61.40" routeLength="368.70" waitingTime="7.00" waitingCount="1" stopTime="0.00" timeLoss="37.78" rerouteNo="0" devices="tripinfo_flow5.25" vType="vtypeauto" speedFactor="1.12" vaporized=""/>
    <tripinfo id="flow5.8" depart="22.40" departLane="D4D3_0" departPos="4.10" departSpeed="0.00" departDelay="14.40" arrival="132.50" arrivalLane="D1D0_0" arrivalPos="72.80" arrivalSpeed="15.19" duration="110.10" routeLength="368.70" waitingTime="51.30" waitingCount="4" stopTime="0.00" timeLoss="85.86" rerouteNo="0" devices="tripinfo_flow5.8" vType="vtypeauto" speedFactor="1.10" vaporized=""/>
    <tripinfo id="flow5.34" depart="95.00" departLane="D4D3_0" departPos="4.10" departSpeed="0.00" departDelay="61.00" arrival="132.70" arrivalLane="D1D0_2" arrivalPos="72.80" arrivalSpeed="13.63" duration="37.70" routeLength="368.70" waitingTime="0.00" waitingCount="0" stopTime="0.00" timeLoss="10.72" rerouteNo="0" devices="tripinfo_flow5.34" vType="vtypeauto" speedFactor="0.98" vaporized=""/>
    <tripinfo id="flow5.28" depart="78.20" departLane="D4D3_0" departPos="4.10" departSpeed="0.00" departDelay="50.20" arrival="132.90" arrivalLane="D1D0_1" arrivalPos="72.80" arrivalSpeed="15.76" duration="54.70" routeLength="368.70" waitingTime="0.00" waitingCount="0" stopTime="0.00" timeLoss="31.36" rerouteNo="0" devices="tripinfo_flow5.28" vType="vtypeauto" speedFactor="1.14" vaporized=""/>
    <tripinfo id="flow5.11" depart="30.80" departLane="D4D3_0" departPos="4.10" departSpeed="0.00" departDelay="19.80" arrival="134.10" arrivalLane="D1D0_0" arrivalPos="72.80" arrivalSpeed="13.46" duration="103.30" routeLength="368.70" waitingTime="38.40" waitingCount="4" stopTime="0.00" timeLoss="76.00" rerouteNo="0" devices="tripinfo_flow5.11" vType="vtypeauto" speedFactor="0.97" vaporized=""/>
    <tripinfo id="flow5.36" depart="100.60" departLane="D4D3_0" departPos="4.10" departSpeed="0.00" departDelay="64.60" arrival="134.20" arrivalLane="D1D0_2" arrivalPos="72.80" arrivalSpeed="15.93" duration="33.60" routeLength="368.70" waitingTime="0.00" waitingCount="0" stopTime="0.00" timeLoss="10.40" rerouteNo="0" devices="tripinfo_flow5.36" vType="vtypeauto" speedFactor="1.15" vaporized=""/>
    <tripinfo id="flow2.4" depart="11.00" departLane="A0A1_0" departPos="4.10" departSpeed="0.00" departDelay="7.00" arrival="134.90" arrivalLane="C3D3_0" arrivalPos="72.80" arrivalSpeed="12.72" duration="123.90" routeLength="512.81" waitingTime="25.10" waitingCount="7" stopTime="0.00" timeLoss="79.85" rerouteNo="0" devices="tripinfo_flow2.4" vType="vtypeauto" speedFactor="0.92" vaporized=""/>
    <tripinfo id="flow5.32" depart="89.40" departLane="D4D3_0" departPos="4.10" departSpeed="0.00" departDelay="57.40" arrival="135.40" arrivalLane="D1D0_1" arrivalPos="72.80" arrivalSpeed="12.03" duration="46.00" routeLength="368.70" waitingTime="0.00" waitingCount="0" stopTime="0.00" timeLoss="15.54" rerouteNo="0" devices="tripinfo_flow5.32" vType="vtypeauto" speedFactor="0.87" vaporized=""/>
    <tripinfo id="flow5.14" depart="39.30" departLane="D4D3_0" departPos="4.10" departSpeed="0.00" departDelay="25.30" arrival="135.60" arrivalLane="D1D0_0" arrivalPos="72.80" arrivalSpeed="14.13" duration="96.30" routeLength="368.70" waitingTime="28.40" waitingCount="4" stopTime="0.00" timeLoss="70.31" rerouteNo="0" devices="tripinfo_flow5.14" vType="vtypeauto" speedFactor="1.02" vaporized=""/>
    <tripinfo id="flow5.37" depart="103.40" departLane="D4D3_0" departPos="4.10" departSpeed="0.00" departDelay="66.40" arrival="135.60" arrivalLane="D1D0_2" arrivalPos="72.80" arrivalSpeed="15.36" duration="32.20" routeLength="368.70" waitingTime="0.00" waitingCount="0" stopTime="0.00" timeLoss="8.25" rerouteNo="0" devices="tripinfo_flow5.37" vType="vtypeauto" speedFactor="1.11" vaporized=""/>
    <tripinfo id="flow0.1" depart="1.40" departLane="B4B3_0" departPos="4.10" departSpeed="0.00" departDelay="0.40" arrival="135.80" arrivalLane="B3A3_2" arrivalPos="72.80" arrivalSpeed="14.43" duration="134.40" routeLength="560.63" waitingTime="59.90" waitingCount="4" stopTime="0.00" timeLoss="94.01" rerouteNo="0" devices="tripinfo_flow0.1" vType="vtypeauto" speedFactor="1.05" vaporized=""/>
    <tripinfo id="flow5.29" depart="81.00" departLane="D4D3_0" departPos="4.10" departSpeed="0.00" departDelay="52.00" arrival="136.90" arrivalLane="D1D0_1" arrivalPos="72.80" arrivalSpeed="14.76" duration="55.90" routeLength="368.70" waitingTime="0.00" waitingCount="0" stopTime="0.00" timeLoss="30.93" rerouteNo="0" devices="tripinfo_flow5.29" vType="vtypeauto" speedFactor="1.06" vaporized=""/>
    <tripinfo id="flow5.17" depart="47.60" departLane="D4D3_0" departPos="4.10" departSpeed="0.00" departDelay="30.60" arrival="137.10" arrivalLane="D1D0_0" arrivalPos="72.80" arrivalSpeed="14.26" duration="89.50" routeLength="368.70" waitingTime="18.90" waitingCount="3" stopTime="0.00" timeLoss="63.82" rerouteNo="0" devices="tripinfo_flow5.17" vType="vtypeauto" speedFactor="1.03" vaporized=""/>
    <tripinfo id="flow2.14" depart="38.90" departLane="A0A1_0" departPos="4.10" departSpeed="0.00" departDelay="24.90" arrival="137.40" arrivalLane="C3D3_0" arrivalPos="72.80" arrivalSpeed="13.90" duration="98.50" routeLength="512.81" waitingTime="19.80" waitingCount="4" stopTime="0.00" timeLoss="58.30" rerouteNo="0" devices="tripinfo_flow2.14" vType="vtypeauto" speedFactor="1.00" vaporized=""/>