<?xml version="1.0" encoding="UTF-8"?>

<!-- generated on 2024-10-24 22:51:46 by Eclipse SUMO sumo Version 1.20.0
<configuration xmlns:xsi="http://www.w3.org/2001/XMLSchema-instance" xsi:noNamespaceSchemaLocation="http://sumo.dlr.de/xsd/sumoConfiguration.xsd">

    <input>
        <net-file value="sim_cfg_grid_3_lanes/grid.net.xml"/>
        <route-files value="sim_cfg_grid_3_lanes/grid.rou.xml"/>
    </input>

    <output>
        <tripinfo-output value="sim_cfg_grid_3_lanes/tripinfo.xml"/>
    </output>

    <time>
        <begin value="0"/>
        <end value="500"/>
        <step-length value="0.1"/>
    </time>

    <traci_server>
        <remote-port value="51357"/>
    </traci_server>

    <gui_only>
        <gui-settings-file value="sim_cfg_grid_3_lanes/gui_settings.xml"/>
    </gui_only>

</configuration>
-->

<tripinfos xmlns:xsi="http://www.w3.org/2001/XMLSchema-instance" xsi:noNamespaceSchemaLocation="http://sumo.dlr.de/xsd/tripinfo_file.xsd">
    <tripinfo id="flow4.0" depart="0.40" departLane="C0C1_0" departPos="4.10" departSpeed="0.00" departDelay="0.40" arrival="49.70" arrivalLane="C3C4_0" arrivalPos="72.80" arrivalSpeed="14.26" duration="49.30" routeLength="368.70" waitingTime="10.90" waitingCount="2" stopTime="0.00" timeLoss="23.46" rerouteNo="0" devices="tripinfo_flow4.0" vType="vtypeauto" speedFactor="1.03" vaporized=""/>
    <tripinfo id="flow4.1" depart="3.30" departLane="C0C1_0" departPos="4.10" departSpeed="0.00" departDelay="2.30" arrival="49.70" arrivalLane="C3C4_1" arrivalPos="72.80" arrivalSpeed="14.25" duration="46.40" routeLength="368.70" waitingTime="7.70" waitingCount="2" stopTime="0.00" timeLoss="20.47" rerouteNo="0" devices="tripinfo_flow4.1" vType="vtypeauto" speedFactor="1.03" vaporized=""/>
    <tripinfo id="flow4.4" depart="11.90" departLane="C0C1_0" departPos="4.10" departSpeed="0.00" departDelay="7.90" arrival="51.40" arrivalLane="C3C4_1" arrivalPos="72.80" arrivalSpeed="13.85" duration="39.50" routeLength="368.70" waitingTime="0.00" waitingCount="0" stopTime="0.00" timeLoss="13.02" rerouteNo="0" devices="tripinfo_flow4.4" vType="vtypeauto" speedFactor="1.01" vaporized=""/>
    <tripinfo id="flow4.3" depart="9.00" departLane="C0C1_0" departPos="4.10" departSpeed="0.00" departDelay="6.00" arrival="51.60" arrivalLane="C3C4_2" arrivalPos="72.80" arrivalSpeed="12.03" duration="42.60" routeLength="368.70" waitingTime="2.50" waitingCount="1" stopTime="0.00" timeLoss="12.10" rerouteNo="0" devices="tripinfo_flow4.3" vType="vtypeauto" speedFactor="0.87" vaporized=""/>
    <tripinfo id="flow4.2" depart="6.10" departLane="C0C1_0" departPos="4.10" departSpeed="0.00" departDelay="4.10" arrival="52.20" arrivalLane="C3C4_0" arrivalPos="72.80" arrivalSpeed="12.99" duration="46.10" routeLength="368.70" waitingTime="0.00" waitingCount="0" stopTime="0.00" timeLoss="17.68" rerouteNo="0" devices="tripinfo_flow4.2" vType="vtypeauto" speedFactor="0.94" vaporized=""/>
    <tripinfo id="flow4.7" depart="20.70" departLane="C0C1_0" departPos="4.10" departSpeed="0.00" departDelay="13.70" arrival="52.90" arrivalLane="C3C4_1" arrivalPos="72.80" arrivalSpeed="15.22" duration="32.20" routeLength="368.70" waitingTime="0.00" waitingCount="0" stopTime="0.00" timeLoss="7.89" rerouteNo="0" devices="tripinfo_flow4.7" vType="vtypeauto" speedFactor="1.10" vaporized=""/>
    <tripinfo id="flow4.6" depart="17.80" departLane="C0C1_0" departPos="4.10" departSpeed="0.00" departDelay="11.80" arrival="53.10" arrivalLane="C3C4_2" arrivalPos="72.80" arrivalSpeed="13.74" duration="35.30" routeLength="368.70" waitingTime="0.00" waitingCount="0" stopTime="0.00" timeLoss="8.64" rerouteNo="0" devices="tripinfo_flow4.6" vType="vtypeauto" speedFactor="1.00" vaporized=""/>
    <tripinfo id="flow4.5" depart="14.80" departLane="C0C1_0" departPos="4.10" departSpeed="0.00" departDelay="9.80" arrival="54.20" arrivalLane="C3C4_0" arrivalPos="72.80" arrivalSpeed="12.51" duration="39.40" routeLength="368.70" waitingTime="0.00" waitingCount="0" stopTime="0.00" timeLoss="9.86" rerouteNo="0" devices="tripinfo_flow4.5" vType="vtypeauto" speedFactor="0.90" vaporized=""/>
    <tripinfo id="flow4.8" depart="23.60" departLane="C0C1_0" departPos="4.10" departSpeed="0.00" departDelay="15.60" arrival="55.70" arrivalLane="C3C4_0" arrivalPos="72.80" arrivalSpeed="14.91" duration="32.10" routeLength="368.70" waitingTime="0.00" waitingCount="0" stopTime="0.00" timeLoss="7.51" rerouteNo="0" devices="tripinfo_flow4.8" vType="vtypeauto" speedFactor="1.08" vaporized=""/>
    <tripinfo id="flow2.0" depart="0.00" departLane="A0A1_0" departPos="4.10" departSpeed="0.00" departDelay="0.00" arrival="79.90" arrivalLane="C3D3_0" arrivalPos="72.80" arrivalSpeed="11.41" duration="79.90" routeLength="512.81" waitingTime="22.10" waitingCount="2" stopTime="0.00" timeLoss="40.10" rerouteNo="0" devices="tripinfo_flow2.0" vType="vtypeauto" speedFactor="1.01" vaporized=""/>
    <tripinfo id="flow1.3" depart="8.40" departLane="A3B3_0" departPos="4.10" departSpeed="0.00" departDelay="5.40" arrival="79.90" arrivalLane="D3E3_2" arrivalPos="72.80" arrivalSpeed="13.50" duration="71.50" routeLength="368.70" waitingTime="35.50" waitingCount="1" stopTime="0.00" timeLoss="44.21" rerouteNo="0" devices="tripinfo_flow1.3" vType="vtypeauto" speedFactor="0.97" vaporized=""/>
    <tripinfo id="flow1.1" depart="2.80" departLane="A3B3_0" departPos="4.10" departSpeed="0.00" departDelay="1.80" arrival="80.20" arrivalLane="D3E3_1" arrivalPos="72.80" arrivalSpeed="12.98" duration="77.40" routeLength="368.70" waitingTime="36.90" waitingCount="2" stopTime="0.00" timeLoss="49.05" rerouteNo="0" devices="tripinfo_flow1.1" vType="vtypeauto" speedFactor="0.94" vaporized=""/>
    <tripinfo id="flow1.0" depart="0.00" departLane="A3B3_0" departPos="4.10" departSpeed="0.00" departDelay="0.00" arrival="80.40" arrivalLane="D3E3_0" arrivalPos="72.80" arrivalSpeed="12.97" duration="80.40" routeLength="368.70" waitingTime="40.10" waitingCount="2" stopTime="0.00" timeLoss="52.02" rerouteNo="0" devices="tripinfo_flow1.0" vType="vtypeauto" speedFactor="0.94" vaporized=""/>
    <tripinfo id="flow2.1" depart="2.80" departLane="A0A1_0" departPos="4.10" departSpeed="0.00" departDelay="1.80" arrival="81.10" arrivalLane="C3D3_0" arrivalPos="72.80" arrivalSpeed="12.42" duration="78.30" routeLength="512.81" waitingTime="7.20" waitingCount="1" stopTime="0.00" timeLoss="33.18" rerouteNo="0" devices="tripinfo_flow2.1" vType="vtypeauto@flow2.1" speedFactor="1.01" vaporized=""/>
    <tripinfo id="flow1.5" depart="14.00" departLane="A3B3_0" departPos="4.10" departSpeed="0.00" departDelay="9.00" arrival="81.40" arrivalLane="D3E3_1" arrivalPos="72.80" arrivalSpeed="13.91" duration="67.40" routeLength="368.70" waitingTime="26.70" waitingCount="1" stopTime="0.00" timeLoss="40.31" rerouteNo="0" devices="tripinfo_flow1.5" vType="vtypeauto@flow1.5" speedFactor="1.01" vaporized=""/>
    <tripinfo id="flow1.2" depart="5.60" departLane="A3B3_0" departPos="4.10" departSpeed="0.00" departDelay="3.60" arrival="81.50" arrivalLane="D3E3_0" arrivalPos="72.80" arrivalSpeed="13.88" duration="75.90" routeLength="368.70" waitingTime="29.00" waitingCount="1" stopTime="0.00" timeLoss="47.89" rerouteNo="0" devices="tripinfo_flow1.2" vType="vtypeauto@flow1.2" speedFactor="1.01" vaporized=""/>
    <tripinfo id="flow1.4" depart="11.20" departLane="A3B3_0" departPos="4.10" departSpeed="0.00" departDelay="7.20" arrival="81.50" arrivalLane="D3E3_2" arrivalPos="72.80" arrivalSpeed="12.87" duration="70.30" routeLength="368.70" waitingTime="29.30" waitingCount="1" stopTime="0.00" timeLoss="41.78" rerouteNo="0" devices="tripinfo_flow1.4" vType="vtypeauto" speedFactor="0.93" vaporized=""/>
    <tripinfo id="flow2.2" depart="5.50" departLane="A0A1_0" departPos="4.10" departSpeed="0.00" departDelay="3.50" arrival="82.20" arrivalLane="C3D3_0" arrivalPos="72.80" arrivalSpeed="13.34" duration="76.70" routeLength="512.81" waitingTime="4.80" waitingCount="1" stopTime="0.00" timeLoss="32.64" rerouteNo="0" devices="tripinfo_flow2.2" vType="vtypeauto@flow2.2" speedFactor="1.01" vaporized=""/>
    <tripinfo id="flow1.8" depart="22.20" departLane="A3B3_0" departPos="4.10" departSpeed="0.00" departDelay="14.20" arrival="82.50" arrivalLane="D3E3_1" arrivalPos="72.80" arrivalSpeed="14.00" duration="60.30" routeLength="368.70" waitingTime="16.20" waitingCount="2" stopTime="0.00" timeLoss="36.03" rerouteNo="0" devices="tripinfo_flow1.8" vType="vtypeauto@flow1.8" speedFactor="1.01" vaporized=""/>
    <tripinfo id="flow1.6" depart="16.70" departLane="A3B3_0" departPos="4.10" departSpeed="0.00" departDelay="10.70" arrival="82.60" arrivalLane="D3E3_0" arrivalPos="72.80" arrivalSpeed="13.92" duration="65.90" routeLength="368.70" waitingTime="25.60" waitingCount="1" stopTime="0.00" timeLoss="40.05" rerouteNo="0" devices="tripinfo_flow1.6" vType="vtypeauto@flow1.6" speedFactor="1.01" vaporized=""/>
    <tripinfo id="flow1.10" depart="27.80" departLane="A3B3_0" departPos="4.10" departSpeed="0.00" departDelay="17.80" arrival="83.10" arrivalLane="D3E3_2" arrivalPos="72.80" arrivalSpeed="13.46" duration="55.30" routeLength="368.70" waitingTime="10.30" waitingCount="2" stopTime="0.00" timeLoss="27.94" rerouteNo="0" devices="tripinfo_flow1.10" vType="vtypeauto" speedFactor="0.97" vaporized=""/>
    <tripinfo id="flow2.3" depart="8.30" departLane="A0A1_0" departPos="4.10" departSpeed="0.00" departDelay="5.30" arrival="83.40" arrivalLane="C3D3_0" arrivalPos="72.80" arrivalSpeed="14.30" duration="75.10" routeLength="512.81" waitingTime="2.90" waitingCount="1" stopTime="0.00" timeLoss="34.26" rerouteNo="0" devices="tripinfo_flow2.3" vType="vtypeauto@flow2.3" speedFactor="2.15" vaporized=""/>
    <tripinfo id="flow1.11" depart="30.60" departLane="A3B3_0" departPos="4.10" departSpeed="0.00" departDelay="19.60" arrival="83.60" arrivalLane="D3E3_1" arrivalPos="72.80" arrivalSpeed="13.89" duration="53.00" routeLength="368.70" waitingTime="3.00" waitingCount="2" stopTime="0.00" timeLoss="26.65" rerouteNo="0" devices="tripinfo_flow1.11" vType="vtypeauto@flow1.11" speedFactor="1.01" vaporized=""/>
    <tripinfo id="flow1.7" depart="19.50" departLane="A3B3_0" departPos="4.10" departSpeed="0.00" departDelay="12.50" arrival="83.70" arrivalLane="D3E3_0" arrivalPos="72.80" arrivalSpeed="13.96" duration="64.20" routeLength="368.70" waitingTime="18.60" waitingCount="2" stopTime="0.00" timeLoss="34.74" rerouteNo="0" devices="tripinfo_flow1.7" vType="vtypeauto@flow1.7" speedFactor="1.01" vaporized=""/>
    <tripinfo id="flow1.14" depart="38.90" departLane="A3B3_0" departPos="4.10" departSpeed="0.00" departDelay="24.90" arrival="84.50" arrivalLane="D3E3_2" arrivalPos="72.80" arrivalSpeed="15.13" duration="45.60" routeLength="368.70" waitingTime="0.90" waitingCount="1" stopTime="0.00" timeLoss="21.39" rerouteNo="0" devices="tripinfo_flow1.14" vType="vtypeauto" speedFactor="1.10" vaporized=""/>
    <tripinfo id="flow2.5" depart="13.90" departLane="A0A1_0" departPos="4.10" departSpeed="0.00" departDelay="8.90" arrival="84.70" arrivalLane="C3D3_0" arrivalPos="72.80" arrivalSpeed="15.60" duration="70.80" routeLength="512.81" waitingTime="3.00" waitingCount="1" stopTime="0.00" timeLoss="36.59" rerouteNo="0" devices="tripinfo_flow2.5" vType="vtypeauto" speedFactor="1.18" vaporized=""/>
    <tripinfo id="flow1.9" depart="25.00" departLane="A3B3_0" departPos="4.10" departSpeed="0.00" departDelay="16.00" arrival="84.90" arrivalLane="D3E3_0" arrivalPos="72.80" arrivalSpeed="13.92" duration="59.90" routeLength="368.70" waitingTime="9.40" waitingCount="2" stopTime="0.00" timeLoss="32.65" rerouteNo="0" devices="tripinfo_flow1.9" vType="vtypeauto@flow1.9" speedFactor="1.01" vaporized=""/>
    <tripinfo id="flow1.13" depart="36.20" departLane="A3B3_0" departPos="4.10" departSpeed="0.00" departDelay="23.20" arrival="85.60" arrivalLane="D3E3_1" arrivalPos="72.80" arrivalSpeed="11.45" duration="49.40" routeLength="368.70" waitingTime="0.00" waitingCount="0" stopTime="0.00" timeLoss="17.49" rerouteNo="0" devices="tripinfo_flow1.13" vType="vtypeauto" speedFactor="0.83" vaporized=""/>
    <tripinfo id="flow2.4" depart="11.00" departLane="A0A1_0" departPos="4.10" departSpeed="0.00" departDelay="7.00" arrival="86.00" arrivalLane="C3D3_0" arrivalPos="72.80" arrivalSpeed="16.26" duration="75.00" routeLength="512.81" waitingTime="5.50" waitingCount="2" stopTime="0.00" timeLoss="40.87" rerouteNo="0" devices="tripinfo_flow2.4" vType="vtypeauto" speedFactor="1.18" vaporized=""/>
    <tripinfo id="flow1.12" depart="33.40" departLane="A3B3_0" departPos="4.10" departSpeed="0.00" departDelay="21.40" arrival="86.00" arrivalLane="D3E3_0" arrivalPos="72.80" arrivalSpeed="13.93" duration="52.60" routeLength="368.70" waitingTime="0.80" waitingCount="1" stopTime="0.00" timeLoss="25.91" rerouteNo="0" devices="tripinfo_flow1.12" vType="vtypeauto@flow1.12" speedFactor="1.01" vaporized=""/>
    <tripinfo id="flow1.16" depart="44.50" departLane="A3B3_0" departPos="4.10" departSpeed="0.00" departDelay="28.50" arrival="86.10" arrivalLane="D3E3_2" arrivalPos="72.80" arrivalSpeed="13.92" duration="41.60" routeLength="368.70" waitingTime="0.00" waitingCount="0" stopTime="0.00" timeLoss="15.22" rerouteNo="0" devices="tripinfo_flow1.16" vType="vtypeauto" speedFactor="1.01" vaporized=""/>
    <tripinfo id="flow1.17" depart="47.30" departLane="A3B3_0" departPos="4.10" departSpeed="0.00" departDelay="30.30" arrival="87.10" arrivalLane="D3E3_1" arrivalPos="72.80" arrivalSpeed="13.02" duration="39.80" routeLength="368.70" waitingTime="0.00" waitingCount="0" stopTime="0.00" timeLoss="11.59" rerouteNo="0" devices="tripinfo_flow1.17" vType="vtypeauto" speedFactor="0.94" vaporized=""/>
    <tripinfo id="flow2.7" depart="19.50" departLane="A0A1_0" departPos="4.10" departSpeed="0.00" departDelay="12.50" arrival="87.40" arrivalLane="C3D3_0" arrivalPos="72.80" arrivalSpeed="16.18" duration="67.90" routeLength="512.81" waitingTime="0.10" waitingCount="1" stopTime="0.00" timeLoss="33.29" rerouteNo="0" devices="tripinfo_flow2.7" vType="vtypeauto" speedFactor="1.17" vaporized=""/>
    <tripinfo id="flow1.15" depart="41.70" departLane="A3B3_0" departPos="4.10" departSpeed="0.00" departDelay="26.70" arrival="87.50" arrivalLane="D3E3_0" arrivalPos="72.80" arrivalSpeed="14.00" duration="45.80" routeLength="368.70" waitingTime="0.00" waitingCount="0" stopTime="0.00" timeLoss="19.59" rerouteNo="0" devices="tripinfo_flow1.15" vType="vtypeauto" speedFactor="1.01" vaporized=""/>
    <tripinfo id="flow2.10" depart="27.80" departLane="A0A1_0" departPos="4.10" departSpeed="0.00" departDelay="17.80" arrival="90.30" arrivalLane="C3D3_0" arrivalPos="72.80" arrivalSpeed="13.02" duration="62.50" routeLength="512.81" waitingTime="0.60" waitingCount="1" stopTime="0.00" timeLoss="19.63" rerouteNo="0" devices="tripinfo_flow2.10" vType="vtypeauto" speedFactor="0.94" vaporized=""/>
    <tripinfo id="flow2.6" depart="16.70" departLane="A0A1_0" departPos="4.10" departSpeed="0.00" departDelay="10.70" arrival="91.90" arrivalLane="C3D3_0" arrivalPos="72.80" arrivalSpeed="14.44" duration="75.20" routeLength="512.81" waitingTime="0.70" waitingCount="3" stopTime="0.00" timeLoss="36.55" rerouteNo="0" devices="tripinfo_flow2.6" vType="vtypeauto" speedFactor="1.04" vaporized=""/>
    <tripinfo id="flow2.12" depart="33.40" departLane="A0A1_0" departPos="4.10" departSpeed="0.00" departDelay="21.40" arrival="94.50" arrivalLane="C3D3_0" arrivalPos="72.80" arrivalSpeed="13.79" duration="61.10" routeLength="512.81" waitingTime="0.00" waitingCount="0" stopTime="0.00" timeLoss="20.84" rerouteNo="0" devices="tripinfo_flow2.12" vType="vtypeauto" speedFactor="1.00" vaporized=""/>
    <tripinfo id="flow2.8" depart="22.20" departLane="A0A1_0" departPos="4.10" departSpeed="0.00" departDelay="14.20" arrival="96.40" arrivalLane="C3D3_0" arrivalPos="72.80" arrivalSpeed="14.15" duration="74.20" routeLength="512.81" waitingTime="0.00" waitingCount="0" stopTime="0.00" timeLoss="34.83" rerouteNo="0" devices="tripinfo_flow2.8" vType="vtypeauto" speedFactor="1.02" vaporized=""/>
    <tripinfo id="flow6.3" depart="8.40" departLane="D4D3_0" departPos="4.10" departSpeed="0.00" departDelay="5.40" arrival="98.10" arrivalLane="D1D0_2" arrivalPos="72.80" arrivalSpeed="13.12" duration="89.70" routeLength="368.70" waitingTime="43.80" waitingCount="3" stopTime="0.00" timeLoss="61.64" rerouteNo="0" devices="tripinfo_flow6.3" vType="vtypeauto" speedFactor="0.95" vaporized=""/>
    <tripinfo id="flow2.9" depart="25.00" departLane="A0A1_0" departPos="4.10" departSpeed="0.00" departDelay="16.00" arrival="99.50" arrivalLane="C3D3_0" arrivalPos="72.80" arrivalSpeed="12.15" duration="74.50" routeLength="512.81" waitingTime="0.00" waitingCount="0" stopTime="0.00" timeLoss="28.83" rerouteNo="0" devices="tripinfo_flow2.9" vType="vtypeauto" speedFactor="0.88" vaporized=""/>
    <tripinfo id="flow6.4" depart="11.30" departLane="D4D3_0" departPos="4.10" departSpeed="0.00" departDelay="7.30" arrival="99.60" arrivalLane="D1D0_2" arrivalPos="72.80" arrivalSpeed="13.74" duration="88.30" routeLength="368.70" waitingTime="46.20" waitingCount="2" stopTime="0.00" timeLoss="61.61" rerouteNo="0" devices="tripinfo_flow6.4" vType="vtypeauto" speedFactor="0.99" vaporized=""/>
    <tripinfo id="flow2.15" depart="41.80" departLane="A0A1_0" departPos="4.10" departSpeed="0.00" departDelay="26.80" arrival="101.10" arrivalLane="C3D3_0" arrivalPos="72.80" arrivalSpeed="14.29" duration="59.30" routeLength="512.81" waitingTime="1.30" waitingCount="1" stopTime="0.00" timeLoss="20.26" rerouteNo="0" devices="tripinfo_flow2.15" vType="vtypeauto" speedFactor="1.03" vaporized=""/>
    <tripinfo id="flow6.9" depart="25.50" departLane="D4D3_0" departPos="4.10" departSpeed="0.00" departDelay="16.50" arrival="101.20" arrivalLane="D1D0_2" arrivalPos="72.80" arrivalSpeed="14.09" duration="75.70" routeLength="368.70" waitingTime="30.30" waitingCount="2" stopTime="0.00" timeLoss="49.67" rerouteNo="0" devices="tripinfo_flow6.9" vType="vtypeauto" speedFactor="1.02" vaporized=""/>
    <tripinfo id="flow6.12" depart="33.90" departLane="D4D3_0" departPos="4.10" departSpeed="0.00" departDelay="21.90" arrival="102.70" arrivalLane="D1D0_2" arrivalPos="72.80" arrivalSpeed="14.06" duration="68.80" routeLength="368.70" waitingTime="21.50" waitingCount="2" stopTime="0.00" timeLoss="42.69" rerouteNo="0" devices="tripinfo_flow6.12" vType="vtypeauto" speedFactor="1.02" vaporized=""/>
    <tripinfo id="flow2.11" depart="30.60" departLane="A0A1_0" departPos="4.10" departSpeed="0.00" departDelay="19.60" arrival="102.80" arrivalLane="C3D3_0" arrivalPos="72.80" arrivalSpeed="15.06" duration="72.20" routeLength="512.81" waitingTime="0.00" waitingCount="0" stopTime="0.00" timeLoss="35.08" rerouteNo="0" devices="tripinfo_flow2.11" vType="vtypeauto" speedFactor="1.09" vaporized=""/>
    <tripinfo id="flow6.15" depart="42.30" departLane="D4D3_0" departPos="4.10" departSpeed="0.00" departDelay="27.30" arrival="105.80" arrivalLane="D1D0_2" arrivalPos="72.80" arrivalSpeed="11.93" duration="63.50" routeLength="368.70" waitingTime="12.40" waitingCount="2" stopTime="0.00" timeLoss="32.76" rerouteNo="0" devices="tripinfo_flow6.15" vType="vtypeauto" speedFactor="0.87" vaporized=""/>
    <tripinfo id="flow2.13" depart="36.20" departLane="A0A1_0" departPos="4.10" departSpeed="0.00" departDelay="23.20" arrival="105.90" arrivalLane="C3D3_0" arrivalPos="72.80" arrivalSpeed="12.69" duration="69.70" routeLength="512.81" waitingTime="0.10" waitingCount="1" stopTime="0.00" timeLoss="25.85" rerouteNo="0" devices="tripinfo_flow2.13" vType="vtypeauto" speedFactor="0.92" vaporized=""/>
    <tripinfo id="flow6.18" depart="50.60" departLane="D4D3_0" departPos="4.10" departSpeed="0.00" departDelay="32.60" arrival="107.30" arrivalLane="D1D0_2" arrivalPos="72.80" arrivalSpeed="13.23" duration="56.70" routeLength="368.70" waitingTime="10.30" waitingCount="1" stopTime="0.00" timeLoss="29.02" rerouteNo="0" devices="tripinfo_flow6.18" vType="vtypeauto" speedFactor="0.96" vaporized=""/>
    <tripinfo id="flow2.14" depart="39.00" departLane="A0A1_0" departPos="4.10" departSpeed="0.00" departDelay="25.00" arrival="107.50" arrivalLane="C3D3_0" arrivalPos="72.80" arrivalSpeed="14.72" duration="68.50" routeLength="512.81" waitingTime="0.00" waitingCount="0" stopTime="0.00" timeLoss="30.53" rerouteNo="0" devices="tripinfo_flow2.14" vType="vtypeauto" speedFactor="1.06" vaporized=""/>
    <tripinfo id="flow6.19" depart="53.30" departLane="D4D3_0" departPos="4.10" departSpeed="0.00" departDelay="34.30" arrival="108.90" arrivalLane="D1D0_2" arrivalPos="72.80" arrivalSpeed="13.20" duration="55.60" routeLength="368.70" waitingTime="9.30" waitingCount="1" stopTime="0.00" timeLoss="27.70" rerouteNo="0" devices="tripinfo_flow6.19" vType="vtypeauto" speedFactor="0.95" vaporized=""/>
    <tripinfo id="flow2.18" depart="50.20" departLane="A0A1_0" departPos="4.10" departSpeed="0.00" departDelay="32.20" arrival="109.20" arrivalLane="C3D3_0" arrivalPos="72.80" arrivalSpeed="15.46" duration="59.00" routeLength="512.81" waitingTime="0.00" waitingCount="0" stopTime="0.00" timeLoss="22.94" rerouteNo="0" devices="tripinfo_flow2.18" vType="vtypeauto" speedFactor="1.12" vaporized=""/>
    <tripinfo id="flow0.7" depart="11.80" departLane="B4B3_0" departPos="4.10" departSpeed="0.00" departDelay="4.80" arrival="109.80" arrivalLane="B3A3_2" arrivalPos="72.80" arrivalSpeed="11.80" duration="98.00" routeLength="560.63" waitingTime="38.70" waitingCount="2" stopTime="0.00" timeLoss="48.31" rerouteNo="0" devices="tripinfo_flow0.7" vType="vtypeauto" speedFactor="0.85" vaporized=""/>
    <tripinfo id="flow6.20" depart="56.10" departLane="D4D3_0" departPos="4.10" departSpeed="0.00" departDelay="36.10" arrival="110.70" arrivalLane="D1D0_2" arrivalPos="72.80" arrivalSpeed="12.25" duration="54.60" routeLength="368.70" waitingTime="12.70" waitingCount="1" stopTime="0.00" timeLoss="24.61" rerouteNo="0" devices="tripinfo_flow6.20" vType="vtypeauto" speedFactor="0.89" vaporized=""/>
    <tripinfo id="flow0.0" depart="0.00" departLane="B4B3_0" departPos="4.10" departSpeed="0.00" departDelay="0.00" arrival="111.30" arrivalLane="B3A3_2" arrivalPos="72.80" arrivalSpeed="14.67" duration="111.30" routeLength="560.63" waitingTime="51.70" waitingCount="1" stopTime="0.00" timeLoss="71.53" rerouteNo="0" devices="tripinfo_flow0.0" vType="vtypeauto" speedFactor="1.06" vaporized=""/>
    <tripinfo id="flow2.16" depart="44.60" departLane="A0A1_0" departPos="4.10" departSpeed="0.00" departDelay="28.60" arrival="111.50" arrivalLane="C3D3_0" arrivalPos="72.80" arrivalSpeed="15.13" duration="66.90" routeLength="512.81" waitingTime="0.00" waitingCount="0" stopTime="0.00" timeLoss="30.00" rerouteNo="0" devices="tripinfo_flow2.16" vType="vtypeauto" speedFactor="1.10" vaporized=""/>
    <tripinfo id="flow6.16" depart="45.00" departLane="D4D3_0" departPos="4.10" departSpeed="0.00" departDelay="29.00" arrival="112.20" arrivalLane="D1D0_2" arrivalPos="72.80" arrivalSpeed="13.72" duration="67.20" routeLength="368.70" waitingTime="24.70" waitingCount="1" stopTime="0.00" timeLoss="40.41" rerouteNo="0" devices="tripinfo_flow6.16" vType="vtypeauto" speedFactor="0.99" vaporized=""/>
    <tripinfo id="flow0.10" depart="18.60" departLane="B4B3_0" departPos="4.10" departSpeed="0.00" departDelay="8.60" arrival="117.10" arrivalLane="B3A3_2" arrivalPos="72.80" arrivalSpeed="13.91" duration="98.50" routeLength="560.63" waitingTime="23.80" waitingCount="4" stopTime="0.00" timeLoss="56.65" rerouteNo="0" devices="tripinfo_flow0.10" vType="vtypeauto@flow0.10" speedFactor="1.01" vaporized=""/>
    <tripinfo id="flow4.12" depart="35.20" departLane="C0C1_0" departPos="4.10" departSpeed="0.00" departDelay="23.20" arrival="143.70" arrivalLane="C3C4_1" arrivalPos="72.80" arrivalSpeed="13.93" duration="108.50" routeLength="368.70" waitingTime="68.80" waitingCount="2" stopTime="0.00" timeLoss="82.12" rerouteNo="0" devices="tripinfo_flow4.12" vType="vtypeauto" speedFactor="1.01" vaporized=""/>
    <tripinfo id="flow4.15" depart="43.90" departLane="C0C1_0" departPos="4.10" departSpeed="0.00" departDelay="28.90" arrival="145.40" arrivalLane="C3C4_2" arrivalPos="72.80" arrivalSpeed="13.23" duration="101.50" routeLength="368.70" waitingTime="53.00" waitingCount="2" stopTime="0.00" timeLoss="73.81" rerouteNo="0" devices="tripinfo_flow4.15" vType="vtypeauto" speedFactor="0.96" vaporized=""/>
    <tripinfo id="flow4.18" depart="52.60" departLane="C0C1_0" departPos="4.10" departSpeed="0.00" departDelay="34.60" arrival="146.90" arrivalLane="C3C4_2" arrivalPos="72.80" arrivalSpeed="14.24" duration="94.30" routeLength="368.70" waitingTime="44.10" waitingCount="2" stopTime="0.00" timeLoss="68.55" rerouteNo="0" devices="tripinfo_flow4.18" vType="vtypeauto" speedFactor="1.03" vaporized=""/>
    <tripinfo id="flow4.9" depart="26.50" departLane="C0C1_0" departPos="4.10" departSpeed="0.00" departDelay="17.50" arrival="147.50" arrivalLane="C3C4_0" arrivalPos="72.80" arrivalSpeed="3.94" duration="121.00" routeLength="368.70" waitingTime="77.20" waitingCount="2" stopTime="0.00" timeLoss="91.98" rerouteNo="0" devices="tripinfo_flow4.9" vType="vtypeauto" speedFactor="0.91" vaporized=""/>
    <tripinfo id="flow4.10" depart="29.40" departLane="C0C1_0" departPos="4.10" departSpeed="0.00" departDelay="19.40" arrival="147.60" arrivalLane="C3C4_0" arrivalPos="72.80" arrivalSpeed="4.02" duration="118.20" routeLength="368.70" waitingTime="74.30" waitingCount="2" stopTime="0.00" timeLoss="90.39" rerouteNo="0" devices="tripinfo_flow4.10" vType="vtypeauto" speedFactor="0.96" vaporized=""/>
    <tripinfo id="flow4.21" depart="61.20" departLane="C0C1_0" departPos="4.10" departSpeed="0.00" departDelay="40.20" arrival="148.40" arrivalLane="C3C4_2" arrivalPos="72.80" arrivalSpeed="13.91" duration="87.20" routeLength="368.70" waitingTime="33.70" waitingCount="3" stopTime="0.00" timeLoss="60.77" rerouteNo="0" devices="tripinfo_flow4.21" vType="vtypeauto" speedFactor="1.00" vaporized=""/>
    <tripinfo id="flow4.11" depart="32.30" departLane="C0C1_0" departPos="4.10" departSpeed="0.00" departDelay="21.30" arrival="149.10" arrivalLane="C3C4_0" arrivalPos="72.80" arrivalSpeed="5.95" duration="116.80" routeLength="368.70" waitingTime="65.60" waitingCount="2" stopTime="0.00" timeLoss="90.33" rerouteNo="0" devices="tripinfo_flow4.11" vType="vtypeauto@flow4.11" speedFactor="1.01" vaporized=""/>
    <tripinfo id="flow4.13" depart="38.10" departLane="C0C1_0" departPos="4.10" departSpeed="0.00" departDelay="25.10" arrival="149.10" arrivalLane="C3C4_1" arrivalPos="72.80" arrivalSpeed="6.02" duration="111.00" routeLength="368.70" waitingTime="60.10" waitingCount="2" stopTime="0.00" timeLoss="85.17" rerouteNo="0" devices="tripinfo_flow4.13" vType="vtypeauto@flow4.13" speedFactor="1.01" vaporized=""/>
    <tripinfo id="flow4.14" depart="40.90" departLane="C0C1_0" departPos="4.10" departSpeed="0.00" departDelay="26.90" arrival="150.50" arrivalLane="C3C4_0" arrivalPos="72.80" arrivalSpeed="7.55" duration="109.60" routeLength="368.70" waitingTime="55.50" waitingCount="2" stopTime="0.00" timeLoss="82.77" rerouteNo="0" devices="tripinfo_flow4.14" vType="vtypeauto@flow4.14" speedFactor="1.01" vaporized=""/>
    <tripinfo id="flow4.16" depart="46.80" departLane="C0C1_0" departPos="4.10" departSpeed="0.00" departDelay="30.80" arrival="150.50" arrivalLane="C3C4_1" arrivalPos="72.80" arrivalSpeed="7.35" duration="103.70" routeLength="368.70" waitingTime="50.20" waitingCount="2" stopTime="0.00" timeLoss="78.89" rerouteNo="0" devices="tripinfo_flow4.16" vType="vtypeauto@flow4.16" speedFactor="1.01" vaporized=""/>
    <tripinfo id="flow4.30" depart="87.00" departLane="C0C1_0" departPos="4.10" departSpeed="0.00" departDelay="57.00" arrival="150.80" arrivalLane="C3C4_2" arrivalPos="72.80" arrivalSpeed="11.52" duration="63.80" routeLength="368.70" waitingTime="14.50" waitingCount="1" stopTime="0.00" timeLoss="31.83" rerouteNo="0" devices="tripinfo_flow4.30" vType="vtypeauto" speedFactor="0.83" vaporized=""/>
    <tripinfo id="flow4.17" depart="49.70" departLane="C0C1_0" departPos="4.10" departSpeed="0.00" departDelay="32.70" arrival="151.70" arrivalLane="C3C4_0" arrivalPos="72.80" arrivalSpeed="8.43" duration="102.00" routeLength="368.70" waitingTime="46.10" waitingCount="2" stopTime="0.00" timeLoss="75.83" rerouteNo="0" devices="tripinfo_flow4.17" vType="vtypeauto@flow4.17" speedFactor="1.01" vaporized=""/>
    <tripinfo id="flow4.19" depart="55.50" departLane="C0C1_0" departPos="4.10" departSpeed="0.00" departDelay="36.50" arrival="151.80" arrivalLane="C3C4_1" arrivalPos="72.80" arrivalSpeed="8.47" duration="96.30" routeLength="368.70" waitingTime="40.00" waitingCount="2" stopTime="0.00" timeLoss="69.99" rerouteNo="0" devices="tripinfo_flow4.19" vType="vtypeauto@flow4.19" speedFactor="1.01" vaporized=""/>
    <tripinfo id="flow4.25" depart="72.70" departLane="C0C1_0" departPos="4.10" departSpeed="0.00" departDelay="47.70" arrival="152.00" arrivalLane="C3C4_2" arrivalPos="72.80" arrivalSpeed="13.77" duration="79.30" routeLength="368.70" waitingTime="16.50" waitingCount="2" stopTime="0.00" timeLoss="53.11" rerouteNo="0" devices="tripinfo_flow4.25" vType="vtypeauto@flow4.25" speedFactor="1.01" vaporized=""/>
    <tripinfo id="flow4.20" depart="58.40" departLane="C0C1_0" departPos="4.10" departSpeed="0.00" departDelay="38.40" arrival="153.00" arrivalLane="C3C4_0" arrivalPos="72.80" arrivalSpeed="9.70" duration="94.60" routeLength="368.70" waitingTime="40.40" waitingCount="2" stopTime="0.00" timeLoss="61.60" rerouteNo="0" devices="tripinfo_flow4.20" vType="vtypeauto@flow4.20" speedFactor="1.01" vaporized=""/>