<?xml version="1.0" encoding="UTF-8"?>

<!-- generated on 2024-10-25 17:23:48 by Eclipse SUMO sumo Version 1.20.0
<configuration xmlns:xsi="http://www.w3.org/2001/XMLSchema-instance" xsi:noNamespaceSchemaLocation="http://sumo.dlr.de/xsd/sumoConfiguration.xsd">

    <input>
        <net-file value="sim_cfg_grid_3_lanes/grid.net.xml"/>
        <route-files value="sim_cfg_grid_3_lanes/grid.rou.xml"/>
    </input>

    <output>
        <tripinfo-output value="sim_cfg_grid_3_lanes/tripinfo.xml"/>
    </output>

    <time>
        <begin value="0"/>
        <end value="500"/>
        <step-length value="0.1"/>
    </time>

    <traci_server>
        <remote-port value="49910"/>
    </traci_server>

    <gui_only>
        <gui-settings-file value="sim_cfg_grid_3_lanes/gui_settings.xml"/>
    </gui_only>

</configuration>
-->

<tripinfos xmlns:xsi="http://www.w3.org/2001/XMLSchema-instance" xsi:noNamespaceSchemaLocation="http://sumo.dlr.de/xsd/tripinfo_file.xsd">
    <tripinfo id="flow4.0" depart="0.40" departLane="C0C1_0" departPos="4.10" departSpeed="0.00" departDelay="0.40" arrival="49.60" arrivalLane="C3C4_0" arrivalPos="72.80" arrivalSpeed="14.28" duration="49.20" routeLength="368.70" waitingTime="10.80" waitingCount="2" stopTime="0.00" timeLoss="23.39" rerouteNo="0" devices="tripinfo_flow4.0" vType="vtypeauto" speedFactor="1.03" vaporized=""/>
    <tripinfo id="flow4.1" depart="3.30" departLane="C0C1_0" departPos="4.10" departSpeed="0.00" departDelay="2.30" arrival="49.60" arrivalLane="C3C4_1" arrivalPos="72.80" arrivalSpeed="14.18" duration="46.30" routeLength="368.70" waitingTime="7.70" waitingCount="2" stopTime="0.00" timeLoss="20.42" rerouteNo="0" devices="tripinfo_flow4.1" vType="vtypeauto" speedFactor="1.03" vaporized=""/>
    <tripinfo id="flow4.4" depart="11.90" departLane="C0C1_0" departPos="4.10" departSpeed="0.00" departDelay="7.90" arrival="51.30" arrivalLane="C3C4_1" arrivalPos="72.80" arrivalSpeed="13.89" duration="39.40" routeLength="368.70" waitingTime="0.00" waitingCount="0" stopTime="0.00" timeLoss="12.97" rerouteNo="0" devices="tripinfo_flow4.4" vType="vtypeauto" speedFactor="1.01" vaporized=""/>
    <tripinfo id="flow4.3" depart="9.00" departLane="C0C1_0" departPos="4.10" departSpeed="0.00" departDelay="6.00" arrival="51.60" arrivalLane="C3C4_2" arrivalPos="72.80" arrivalSpeed="12.11" duration="42.60" routeLength="368.70" waitingTime="2.50" waitingCount="1" stopTime="0.00" timeLoss="12.10" rerouteNo="0" devices="tripinfo_flow4.3" vType="vtypeauto" speedFactor="0.87" vaporized=""/>
    <tripinfo id="flow4.2" depart="6.10" departLane="C0C1_0" departPos="4.10" departSpeed="0.00" departDelay="4.10" arrival="52.10" arrivalLane="C3C4_0" arrivalPos="72.80" arrivalSpeed="13.00" duration="46.00" routeLength="368.70" waitingTime="0.00" waitingCount="0" stopTime="0.00" timeLoss="17.63" rerouteNo="0" devices="tripinfo_flow4.2" vType="vtypeauto" speedFactor="0.94" vaporized=""/>
    <tripinfo id="flow4.7" depart="20.70" departLane="C0C1_0" departPos="4.10" departSpeed="0.00" departDelay="13.70" arrival="52.80" arrivalLane="C3C4_1" arrivalPos="72.80" arrivalSpeed="15.11" duration="32.10" routeLength="368.70" waitingTime="0.00" waitingCount="0" stopTime="0.00" timeLoss="7.83" rerouteNo="0" devices="tripinfo_flow4.7" vType="vtypeauto" speedFactor="1.10" vaporized=""/>
    <tripinfo id="flow4.6" depart="17.80" departLane="C0C1_0" departPos="4.10" departSpeed="0.00" departDelay="11.80" arrival="53.10" arrivalLane="C3C4_2" arrivalPos="72.80" arrivalSpeed="13.83" duration="35.30" routeLength="368.70" waitingTime="0.00" waitingCount="0" stopTime="0.00" timeLoss="8.64" rerouteNo="0" devices="tripinfo_flow4.6" vType="vtypeauto" speedFactor="1.00" vaporized=""/>
    <tripinfo id="flow4.5" depart="14.80" departLane="C0C1_0" departPos="4.10" departSpeed="0.00" departDelay="9.80" arrival="54.10" arrivalLane="C3C4_0" arrivalPos="72.80" arrivalSpeed="12.44" duration="39.30" routeLength="368.70" waitingTime="0.00" waitingCount="0" stopTime="0.00" timeLoss="9.81" rerouteNo="0" devices="tripinfo_flow4.5" vType="vtypeauto" speedFactor="0.90" vaporized=""/>
    <tripinfo id="flow4.8" depart="23.60" departLane="C0C1_0" departPos="4.10" departSpeed="0.00" departDelay="15.60" arrival="55.60" arrivalLane="C3C4_0" arrivalPos="72.80" arrivalSpeed="14.97" duration="32.00" routeLength="368.70" waitingTime="0.00" waitingCount="0" stopTime="0.00" timeLoss="7.45" rerouteNo="0" devices="tripinfo_flow4.8" vType="vtypeauto" speedFactor="1.08" vaporized=""/>
    <tripinfo id="flow1.0" depart="0.00" departLane="A3B3_0" departPos="4.10" departSpeed="0.00" departDelay="0.00" arrival="79.80" arrivalLane="D3E3_0" arrivalPos="72.80" arrivalSpeed="12.94" duration="79.80" routeLength="368.70" waitingTime="40.10" waitingCount="2" stopTime="0.00" timeLoss="51.43" rerouteNo="0" devices="tripinfo_flow1.0" vType="vtypeauto" speedFactor="0.94" vaporized=""/>
    <tripinfo id="flow1.3" depart="8.40" departLane="A3B3_0" departPos="4.10" departSpeed="0.00" departDelay="5.40" arrival="79.80" arrivalLane="D3E3_2" arrivalPos="72.80" arrivalSpeed="13.43" duration="71.40" routeLength="368.70" waitingTime="35.50" waitingCount="1" stopTime="0.00" timeLoss="44.16" rerouteNo="0" devices="tripinfo_flow1.3" vType="vtypeauto" speedFactor="0.97" vaporized=""/>
    <tripinfo id="flow1.1" depart="2.80" departLane="A3B3_0" departPos="4.10" departSpeed="0.00" departDelay="1.80" arrival="80.10" arrivalLane="D3E3_1" arrivalPos="72.80" arrivalSpeed="13.01" duration="77.30" routeLength="368.70" waitingTime="36.90" waitingCount="2" stopTime="0.00" timeLoss="48.94" rerouteNo="0" devices="tripinfo_flow1.1" vType="vtypeauto" speedFactor="0.94" vaporized=""/>
    <tripinfo id="flow2.0" depart="0.00" departLane="A0A1_0" departPos="4.10" departSpeed="0.00" departDelay="0.00" arrival="81.20" arrivalLane="C3D3_0" arrivalPos="72.80" arrivalSpeed="11.19" duration="81.20" routeLength="512.81" waitingTime="22.10" waitingCount="2" stopTime="0.00" timeLoss="41.37" rerouteNo="0" devices="tripinfo_flow2.0" vType="vtypeauto" speedFactor="1.01" vaporized=""/>
    <tripinfo id="flow1.2" depart="5.60" departLane="A3B3_0" departPos="4.10" departSpeed="0.00" departDelay="3.60" arrival="81.20" arrivalLane="D3E3_0" arrivalPos="72.80" arrivalSpeed="13.96" duration="75.60" routeLength="368.70" waitingTime="29.00" waitingCount="1" stopTime="0.00" timeLoss="47.58" rerouteNo="0" devices="tripinfo_flow1.2" vType="vtypeauto@flow1.2" speedFactor="1.01" vaporized=""/>
    <tripinfo id="flow1.4" depart="11.20" departLane="A3B3_0" departPos="4.10" departSpeed="0.00" departDelay="7.20" arrival="81.50" arrivalLane="D3E3_2" arrivalPos="72.80" arrivalSpeed="12.87" duration="70.30" routeLength="368.70" waitingTime="29.30" waitingCount="1" stopTime="0.00" timeLoss="41.75" rerouteNo="0" devices="tripinfo_flow1.4" vType="vtypeauto" speedFactor="0.93" vaporized=""/>
    <tripinfo id="flow1.5" depart="14.00" departLane="A3B3_0" departPos="4.10" departSpeed="0.00" departDelay="9.00" arrival="81.60" arrivalLane="D3E3_1" arrivalPos="72.80" arrivalSpeed="13.48" duration="67.60" routeLength="368.70" waitingTime="26.70" waitingCount="1" stopTime="0.00" timeLoss="40.29" rerouteNo="0" devices="tripinfo_flow1.5" vType="vtypeauto" speedFactor="0.97" vaporized=""/>
    <tripinfo id="flow1.6" depart="16.70" departLane="A3B3_0" departPos="4.10" departSpeed="0.00" departDelay="10.70" arrival="82.30" arrivalLane="D3E3_0" arrivalPos="72.80" arrivalSpeed="13.95" duration="65.60" routeLength="368.70" waitingTime="25.60" waitingCount="1" stopTime="0.00" timeLoss="39.75" rerouteNo="0" devices="tripinfo_flow1.6" vType="vtypeauto@flow1.6" speedFactor="1.01" vaporized=""/>
    <tripinfo id="flow2.1" depart="2.80" departLane="A0A1_0" departPos="4.10" departSpeed="0.00" departDelay="1.80" arrival="82.70" arrivalLane="C3D3_0" arrivalPos="72.80" arrivalSpeed="12.67" duration="79.90" routeLength="512.81" waitingTime="7.20" waitingCount="1" stopTime="0.00" timeLoss="34.74" rerouteNo="0" devices="tripinfo_flow2.1" vType="vtypeauto@flow2.1" speedFactor="1.01" vaporized=""/>
    <tripinfo id="flow1.8" depart="22.20" departLane="A3B3_0" departPos="4.10" departSpeed="0.00" departDelay="14.20" arrival="83.00" arrivalLane="D3E3_1" arrivalPos="72.80" arrivalSpeed="15.65" duration="60.80" routeLength="368.70" waitingTime="16.40" waitingCount="2" stopTime="0.00" timeLoss="37.57" rerouteNo="0" devices="tripinfo_flow1.8" vType="vtypeauto" speedFactor="1.14" vaporized=""/>
    <tripinfo id="flow1.10" depart="27.80" departLane="A3B3_0" departPos="4.10" departSpeed="0.00" departDelay="17.80" arrival="83.00" arrivalLane="D3E3_2" arrivalPos="72.80" arrivalSpeed="13.45" duration="55.20" routeLength="368.70" waitingTime="10.40" waitingCount="2" stopTime="0.00" timeLoss="27.91" rerouteNo="0" devices="tripinfo_flow1.10" vType="vtypeauto" speedFactor="0.97" vaporized=""/>
    <tripinfo id="flow1.7" depart="19.50" departLane="A3B3_0" departPos="4.10" departSpeed="0.00" departDelay="12.50" arrival="83.50" arrivalLane="D3E3_0" arrivalPos="72.80" arrivalSpeed="13.98" duration="64.00" routeLength="368.70" waitingTime="18.50" waitingCount="2" stopTime="0.00" timeLoss="34.46" rerouteNo="0" devices="tripinfo_flow1.7" vType="vtypeauto@flow1.7" speedFactor="1.01" vaporized=""/>
    <tripinfo id="flow2.2" depart="5.50" departLane="A0A1_0" departPos="4.10" departSpeed="0.00" departDelay="3.50" arrival="83.80" arrivalLane="C3D3_0" arrivalPos="72.80" arrivalSpeed="13.47" duration="78.30" routeLength="512.81" waitingTime="4.80" waitingCount="1" stopTime="0.00" timeLoss="34.19" rerouteNo="0" devices="tripinfo_flow2.2" vType="vtypeauto@flow2.2" speedFactor="1.01" vaporized=""/>
    <tripinfo id="flow1.14" depart="38.90" departLane="A3B3_0" departPos="4.10" departSpeed="0.00" departDelay="24.90" arrival="84.50" arrivalLane="D3E3_2" arrivalPos="72.80" arrivalSpeed="15.16" duration="45.60" routeLength="368.70" waitingTime="0.80" waitingCount="1" stopTime="0.00" timeLoss="21.34" rerouteNo="0" devices="tripinfo_flow1.14" vType="vtypeauto" speedFactor="1.10" vaporized=""/>
    <tripinfo id="flow1.11" depart="30.60" departLane="A3B3_0" departPos="4.10" departSpeed="0.00" departDelay="19.60" arrival="84.60" arrivalLane="D3E3_1" arrivalPos="72.80" arrivalSpeed="13.91" duration="54.00" routeLength="368.70" waitingTime="3.50" waitingCount="2" stopTime="0.00" timeLoss="27.60" rerouteNo="0" devices="tripinfo_flow1.11" vType="vtypeauto" speedFactor="1.01" vaporized=""/>
    <tripinfo id="flow2.4" depart="11.00" departLane="A0A1_0" departPos="4.10" departSpeed="0.00" departDelay="7.00" arrival="84.90" arrivalLane="C3D3_0" arrivalPos="72.80" arrivalSpeed="14.21" duration="73.90" routeLength="512.81" waitingTime="3.10" waitingCount="2" stopTime="0.00" timeLoss="41.98" rerouteNo="0" devices="tripinfo_flow2.4" vType="vtypeauto@flow2.4" speedFactor="2.15" vaporized=""/>
    <tripinfo id="flow1.9" depart="25.00" departLane="A3B3_0" departPos="4.10" departSpeed="0.00" departDelay="16.00" arrival="85.00" arrivalLane="D3E3_0" arrivalPos="72.80" arrivalSpeed="12.91" duration="60.00" routeLength="368.70" waitingTime="9.10" waitingCount="2" stopTime="0.00" timeLoss="31.69" rerouteNo="0" devices="tripinfo_flow1.9" vType="vtypeauto" speedFactor="0.94" vaporized=""/>
    <tripinfo id="flow1.16" depart="44.50" departLane="A3B3_0" departPos="4.10" departSpeed="0.00" departDelay="28.50" arrival="86.00" arrivalLane="D3E3_2" arrivalPos="72.80" arrivalSpeed="13.89" duration="41.50" routeLength="368.70" waitingTime="0.00" waitingCount="0" stopTime="0.00" timeLoss="15.17" rerouteNo="0" devices="tripinfo_flow1.16" vType="vtypeauto" speedFactor="1.01" vaporized=""/>
    <tripinfo id="flow2.6" depart="16.70" departLane="A0A1_0" departPos="4.10" departSpeed="0.00" departDelay="10.70" arrival="86.30" arrivalLane="C3D3_0" arrivalPos="72.80" arrivalSpeed="14.47" duration="69.60" routeLength="512.81" waitingTime="3.10" waitingCount="4" stopTime="0.00" timeLoss="30.92" rerouteNo="0" devices="tripinfo_flow2.6" vType="vtypeauto" speedFactor="1.04" vaporized=""/>
    <tripinfo id="flow1.12" depart="33.40" departLane="A3B3_0" departPos="4.10" departSpeed="0.00" departDelay="21.40" arrival="86.60" arrivalLane="D3E3_0" arrivalPos="72.80" arrivalSpeed="13.51" duration="53.20" routeLength="368.70" waitingTime="1.10" waitingCount="1" stopTime="0.00" timeLoss="25.92" rerouteNo="0" devices="tripinfo_flow1.12" vType="vtypeauto" speedFactor="0.98" vaporized=""/>
    <tripinfo id="flow1.13" depart="36.20" departLane="A3B3_0" departPos="4.10" departSpeed="0.00" departDelay="23.20" arrival="86.90" arrivalLane="D3E3_1" arrivalPos="72.80" arrivalSpeed="11.46" duration="50.70" routeLength="368.70" waitingTime="0.00" waitingCount="0" stopTime="0.00" timeLoss="18.81" rerouteNo="0" devices="tripinfo_flow1.13" vType="vtypeauto" speedFactor="0.83" vaporized=""/>
    <tripinfo id="flow2.7" depart="19.50" departLane="A0A1_0" departPos="4.10" departSpeed="0.00" departDelay="12.50" arrival="87.70" arrivalLane="C3D3_0" arrivalPos="72.80" arrivalSpeed="16.09" duration="68.20" routeLength="512.81" waitingTime="3.90" waitingCount="2" stopTime="0.00" timeLoss="33.60" rerouteNo="0" devices="tripinfo_flow2.7" vType="vtypeauto" speedFactor="1.17" vaporized=""/>
    <tripinfo id="flow1.17" depart="47.30" departLane="A3B3_0" departPos="4.10" departSpeed="0.00" departDelay="30.30" arrival="88.10" arrivalLane="D3E3_0" arrivalPos="72.80" arrivalSpeed="13.03" duration="40.80" routeLength="368.70" waitingTime="0.00" waitingCount="0" stopTime="0.00" timeLoss="12.61" rerouteNo="0" devices="tripinfo_flow1.17" vType="vtypeauto" speedFactor="0.94" vaporized=""/>
    <tripinfo id="flow1.15" depart="41.70" departLane="A3B3_0" departPos="4.10" departSpeed="0.00" departDelay="26.70" arrival="88.40" arrivalLane="D3E3_1" arrivalPos="72.80" arrivalSpeed="14.08" duration="46.70" routeLength="368.70" waitingTime="0.00" waitingCount="0" stopTime="0.00" timeLoss="20.50" rerouteNo="0" devices="tripinfo_flow1.15" vType="vtypeauto" speedFactor="1.01" vaporized=""/>
    <tripinfo id="flow2.5" depart="13.90" departLane="A0A1_0" departPos="4.10" departSpeed="0.00" departDelay="8.90" arrival="89.00" arrivalLane="C3D3_0" arrivalPos="72.80" arrivalSpeed="16.38" duration="75.10" routeLength="512.81" waitingTime="2.40" waitingCount="2" stopTime="0.00" timeLoss="40.89" rerouteNo="0" devices="tripinfo_flow2.5" vType="vtypeauto" speedFactor="1.18" vaporized=""/>
    <tripinfo id="flow6.4" depart="11.30" departLane="D4D3_0" departPos="4.10" departSpeed="0.00" departDelay="7.30" arrival="91.60" arrivalLane="D1D0_2" arrivalPos="72.80" arrivalSpeed="13.75" duration="80.30" routeLength="368.70" waitingTime="32.00" waitingCount="2" stopTime="0.00" timeLoss="53.62" rerouteNo="0" devices="tripinfo_flow6.4" vType="vtypeauto" speedFactor="0.99" vaporized=""/>
    <tripinfo id="flow2.3" depart="8.30" departLane="A0A1_0" departPos="4.10" departSpeed="0.00" departDelay="5.30" arrival="92.10" arrivalLane="C3D3_0" arrivalPos="72.80" arrivalSpeed="12.32" duration="83.80" routeLength="512.81" waitingTime="0.00" waitingCount="0" stopTime="0.00" timeLoss="38.37" rerouteNo="0" devices="tripinfo_flow2.3" vType="vtypeauto" speedFactor="0.89" vaporized=""/>
    <tripinfo id="flow6.9" depart="25.50" departLane="D4D3_0" departPos="4.10" departSpeed="0.00" departDelay="16.50" arrival="93.20" arrivalLane="D1D0_2" arrivalPos="72.80" arrivalSpeed="14.14" duration="67.70" routeLength="368.70" waitingTime="17.20" waitingCount="2" stopTime="0.00" timeLoss="41.66" rerouteNo="0" devices="tripinfo_flow6.9" vType="vtypeauto" speedFactor="1.02" vaporized=""/>
    <tripinfo id="flow2.8" depart="22.20" departLane="A0A1_0" departPos="4.10" departSpeed="0.00" departDelay="14.20" arrival="93.70" arrivalLane="C3D3_0" arrivalPos="72.80" arrivalSpeed="14.12" duration="71.50" routeLength="512.81" waitingTime="5.80" waitingCount="1" stopTime="0.00" timeLoss="32.03" rerouteNo="0" devices="tripinfo_flow2.8" vType="vtypeauto" speedFactor="1.02" vaporized=""/>
    <tripinfo id="flow6.15" depart="42.30" departLane="D4D3_0" departPos="4.10" departSpeed="0.00" departDelay="27.30" arrival="95.90" arrivalLane="D1D0_2" arrivalPos="72.80" arrivalSpeed="11.92" duration="53.60" routeLength="368.70" waitingTime="1.20" waitingCount="1" stopTime="0.00" timeLoss="22.92" rerouteNo="0" devices="tripinfo_flow6.15" vType="vtypeauto" speedFactor="0.87" vaporized=""/>
    <tripinfo id="flow2.9" depart="25.00" departLane="A0A1_0" departPos="4.10" departSpeed="0.00" departDelay="16.00" arrival="96.60" arrivalLane="C3D3_0" arrivalPos="72.80" arrivalSpeed="12.24" duration="71.60" routeLength="512.81" waitingTime="5.30" waitingCount="2" stopTime="0.00" timeLoss="25.87" rerouteNo="0" devices="tripinfo_flow2.9" vType="vtypeauto" speedFactor="0.88" vaporized=""/>
    <tripinfo id="flow6.18" depart="50.60" departLane="D4D3_0" departPos="4.10" departSpeed="0.00" departDelay="32.60" arrival="97.50" arrivalLane="D1D0_2" arrivalPos="72.80" arrivalSpeed="13.28" duration="46.90" routeLength="368.70" waitingTime="0.00" waitingCount="0" stopTime="0.00" timeLoss="19.15" rerouteNo="0" devices="tripinfo_flow6.18" vType="vtypeauto" speedFactor="0.96" vaporized=""/>
    <tripinfo id="flow2.11" depart="30.60" departLane="A0A1_0" departPos="4.10" departSpeed="0.00" departDelay="19.60" arrival="98.10" arrivalLane="C3D3_0" arrivalPos="72.80" arrivalSpeed="15.01" duration="67.50" routeLength="512.81" waitingTime="0.40" waitingCount="4" stopTime="0.00" timeLoss="30.41" rerouteNo="0" devices="tripinfo_flow2.11" vType="vtypeauto" speedFactor="1.09" vaporized=""/>
    <tripinfo id="flow6.3" depart="8.40" departLane="D4D3_0" departPos="4.10" departSpeed="0.00" departDelay="5.40" arrival="98.30" arrivalLane="D1D0_1" arrivalPos="72.80" arrivalSpeed="13.10" duration="89.90" routeLength="368.70" waitingTime="43.80" waitingCount="2" stopTime="0.00" timeLoss="61.83" rerouteNo="0" devices="tripinfo_flow6.3" vType="vtypeauto" speedFactor="0.95" vaporized=""/>
    <tripinfo id="flow6.20" depart="56.10" departLane="D4D3_0" departPos="4.10" departSpeed="0.00" departDelay="36.10" arrival="99.20" arrivalLane="D1D0_2" arrivalPos="72.80" arrivalSpeed="12.24" duration="43.10" routeLength="368.70" waitingTime="3.70" waitingCount="1" stopTime="0.00" timeLoss="13.11" rerouteNo="0" devices="tripinfo_flow6.20" vType="vtypeauto" speedFactor="0.89" vaporized=""/>
    <tripinfo id="flow6.12" depart="33.90" departLane="D4D3_0" departPos="4.10" departSpeed="0.00" departDelay="21.90" arrival="99.80" arrivalLane="D1D0_1" arrivalPos="72.80" arrivalSpeed="14.06" duration="65.90" routeLength="368.70" waitingTime="9.20" waitingCount="1" stopTime="0.00" timeLoss="39.72" rerouteNo="0" devices="tripinfo_flow6.12" vType="vtypeauto" speedFactor="1.02" vaporized=""/>
    <tripinfo id="flow6.11" depart="31.10" departLane="D4D3_0" departPos="4.10" departSpeed="0.00" departDelay="20.10" arrival="100.70" arrivalLane="D1D0_2" arrivalPos="72.80" arrivalSpeed="13.37" duration="69.60" routeLength="368.70" waitingTime="21.20" waitingCount="1" stopTime="0.00" timeLoss="42.14" rerouteNo="0" devices="tripinfo_flow6.11" vType="vtypeauto" speedFactor="0.97" vaporized=""/>
    <tripinfo id="flow2.10" depart="27.80" departLane="A0A1_0" departPos="4.10" departSpeed="0.00" departDelay="17.80" arrival="100.80" arrivalLane="C3D3_0" arrivalPos="72.80" arrivalSpeed="12.94" duration="73.00" routeLength="512.81" waitingTime="6.60" waitingCount="1" stopTime="0.00" timeLoss="30.11" rerouteNo="0" devices="tripinfo_flow2.10" vType="vtypeauto" speedFactor="0.94" vaporized=""/>
    <tripinfo id="flow6.19" depart="53.30" departLane="D4D3_0" departPos="4.10" departSpeed="0.00" departDelay="34.30" arrival="102.30" arrivalLane="D1D0_2" arrivalPos="72.80" arrivalSpeed="13.21" duration="49.00" routeLength="368.70" waitingTime="0.00" waitingCount="0" stopTime="0.00" timeLoss="21.12" rerouteNo="0" devices="tripinfo_flow6.19" vType="vtypeauto" speedFactor="0.95" vaporized=""/>
    <tripinfo id="flow2.13" depart="36.10" departLane="A0A1_0" departPos="4.10" departSpeed="0.00" departDelay="23.10" arrival="103.30" arrivalLane="C3D3_0" arrivalPos="72.80" arrivalSpeed="12.70" duration="67.20" routeLength="512.81" waitingTime="0.00" waitingCount="0" stopTime="0.00" timeLoss="23.28" rerouteNo="0" devices="tripinfo_flow2.13" vType="vtypeauto" speedFactor="0.92" vaporized=""/>
    <tripinfo id="flow6.14" depart="39.50" departLane="D4D3_0" departPos="4.10" departSpeed="0.00" departDelay="25.50" arrival="104.10" arrivalLane="D1D0_2" arrivalPos="72.80" arrivalSpeed="12.41" duration="64.60" routeLength="368.70" waitingTime="16.60" waitingCount="2" stopTime="0.00" timeLoss="34.86" rerouteNo="0" devices="tripinfo_flow6.14" vType="vtypeauto" speedFactor="0.89" vaporized=""/>
    <tripinfo id="flow2.14" depart="38.90" departLane="A0A1_0" departPos="4.10" departSpeed="0.00" departDelay="24.90" arrival="105.50" arrivalLane="C3D3_0" arrivalPos="72.80" arrivalSpeed="14.71" duration="66.60" routeLength="512.81" waitingTime="0.00" waitingCount="0" stopTime="0.00" timeLoss="28.73" rerouteNo="0" devices="tripinfo_flow2.14" vType="vtypeauto" speedFactor="1.06" vaporized=""/>
    <tripinfo id="flow2.16" depart="44.50" departLane="A0A1_0" departPos="4.10" departSpeed="0.00" departDelay="28.50" arrival="107.80" arrivalLane="C3D3_0" arrivalPos="72.80" arrivalSpeed="15.19" duration="63.30" routeLength="512.81" waitingTime="0.00" waitingCount="0" stopTime="0.00" timeLoss="26.47" rerouteNo="0" devices="tripinfo_flow2.16" vType="vtypeauto" speedFactor="1.10" vaporized=""/>
    <tripinfo id="flow4.12" depart="35.20" departLane="C0C1_0" departPos="4.10" departSpeed="0.00" departDelay="23.20" arrival="125.80" arrivalLane="C3C4_2" arrivalPos="72.80" arrivalSpeed="13.89" duration="90.60" routeLength="368.70" waitingTime="50.80" waitingCount="2" stopTime="0.00" timeLoss="64.23" rerouteNo="0" devices="tripinfo_flow4.12" vType="vtypeauto" speedFactor="1.01" vaporized=""/>
    <tripinfo id="flow4.10" depart="29.40" departLane="C0C1_0" departPos="4.10" departSpeed="0.00" departDelay="19.40" arrival="125.90" arrivalLane="C3C4_1" arrivalPos="72.80" arrivalSpeed="13.25" duration="96.50" routeLength="368.70" waitingTime="56.70" waitingCount="2" stopTime="0.00" timeLoss="68.68" rerouteNo="0" devices="tripinfo_flow4.10" vType="vtypeauto" speedFactor="0.96" vaporized=""/>
    <tripinfo id="flow4.9" depart="26.50" departLane="C0C1_0" departPos="4.10" departSpeed="0.00" departDelay="17.50" arrival="126.00" arrivalLane="C3C4_0" arrivalPos="72.80" arrivalSpeed="12.70" duration="99.50" routeLength="368.70" waitingTime="59.70" waitingCount="2" stopTime="0.00" timeLoss="70.42" rerouteNo="0" devices="tripinfo_flow4.9" vType="vtypeauto" speedFactor="0.91" vaporized=""/>
    <tripinfo id="flow4.13" depart="38.10" departLane="C0C1_0" departPos="4.10" departSpeed="0.00" departDelay="25.10" arrival="127.40" arrivalLane="C3C4_1" arrivalPos="72.80" arrivalSpeed="13.98" duration="89.30" routeLength="368.70" waitingTime="42.10" waitingCount="2" stopTime="0.00" timeLoss="63.48" rerouteNo="0" devices="tripinfo_flow4.13" vType="vtypeauto@flow4.13" speedFactor="1.01" vaporized=""/>
    <tripinfo id="flow4.11" depart="32.30" departLane="C0C1_0" departPos="4.10" departSpeed="0.00" departDelay="21.30" arrival="127.50" arrivalLane="C3C4_0" arrivalPos="72.80" arrivalSpeed="13.90" duration="95.20" routeLength="368.70" waitingTime="47.60" waitingCount="2" stopTime="0.00" timeLoss="68.69" rerouteNo="0" devices="tripinfo_flow4.11" vType="vtypeauto@flow4.11" speedFactor="1.01" vaporized=""/>
    <tripinfo id="flow4.15" depart="43.90" departLane="C0C1_0" departPos="4.10" departSpeed="0.00" departDelay="28.90" arrival="127.50" arrivalLane="C3C4_2" arrivalPos="72.80" arrivalSpeed="13.27" duration="83.60" routeLength="368.70" waitingTime="34.90" waitingCount="2" stopTime="0.00" timeLoss="55.87" rerouteNo="0" devices="tripinfo_flow4.15" vType="vtypeauto" speedFactor="0.96" vaporized=""/>
    <tripinfo id="flow4.14" depart="40.90" departLane="C0C1_0" departPos="4.10" departSpeed="0.00" departDelay="26.90" arrival="128.70" arrivalLane="C3C4_0" arrivalPos="72.80" arrivalSpeed="13.93" duration="87.80" routeLength="368.70" waitingTime="37.60" waitingCount="2" stopTime="0.00" timeLoss="60.97" rerouteNo="0" devices="tripinfo_flow4.14" vType="vtypeauto@flow4.14" speedFactor="1.01" vaporized=""/>
    <tripinfo id="flow4.16" depart="46.80" departLane="C0C1_0" departPos="4.10" departSpeed="0.00" departDelay="30.80" arrival="128.70" arrivalLane="C3C4_1" arrivalPos="72.80" arrivalSpeed="13.97" duration="81.90" routeLength="368.70" waitingTime="32.40" waitingCount="2" stopTime="0.00" timeLoss="57.03" rerouteNo="0" devices="tripinfo_flow4.16" vType="vtypeauto@flow4.16" speedFactor="1.01" vaporized=""/>
    <tripinfo id="flow4.18" depart="52.60" departLane="C0C1_0" departPos="4.10" departSpeed="0.00" departDelay="34.60" arrival="129.00" arrivalLane="C3C4_2" arrivalPos="72.80" arrivalSpeed="14.30" duration="76.40" routeLength="368.70" waitingTime="25.70" waitingCount="1" stopTime="0.00" timeLoss="50.60" rerouteNo="0" devices="tripinfo_flow4.18" vType="vtypeauto" speedFactor="1.03" vaporized=""/>
    <tripinfo id="flow4.17" depart="49.70" departLane="C0C1_0" departPos="4.10" departSpeed="0.00" departDelay="32.70" arrival="129.90" arrivalLane="C3C4_0" arrivalPos="72.80" arrivalSpeed="13.92" duration="80.20" routeLength="368.70" waitingTime="29.40" waitingCount="1" stopTime="0.00" timeLoss="53.99" rerouteNo="0" devices="tripinfo_flow4.17" vType="vtypeauto@flow4.17" speedFactor="1.01" vaporized=""/>
    <tripinfo id="flow4.19" depart="55.50" departLane="C0C1_0" departPos="4.10" departSpeed="0.00" departDelay="36.50" arrival="129.90" arrivalLane="C3C4_1" arrivalPos="72.80" arrivalSpeed="13.92" duration="74.40" routeLength="368.70" waitingTime="23.30" waitingCount="1" stopTime="0.00" timeLoss="48.07" rerouteNo="0" devices="tripinfo_flow4.19" vType="vtypeauto@flow4.19" speedFactor="1.01" vaporized=""/>
    <tripinfo id="flow4.21" depart="61.20" departLane="C0C1_0" departPos="4.10" departSpeed="0.00" departDelay="40.20" arrival="130.50" arrivalLane="C3C4_2" arrivalPos="72.80" arrivalSpeed="13.89" duration="69.30" routeLength="368.70" waitingTime="20.20" waitingCount="4" stopTime="0.00" timeLoss="42.82" rerouteNo="0" devices="tripinfo_flow4.21" vType="vtypeauto" speedFactor="1.00" vaporized=""/>
    <tripinfo id="flow4.25" depart="72.70" departLane="C0C1_0" departPos="4.10" departSpeed="0.00" departDelay="47.70" arrival="131.30" arrivalLane="C3C4_1" arrivalPos="72.80" arrivalSpeed="14.74" duration="58.60" routeLength="368.70" waitingTime="4.40" waitingCount="1" stopTime="0.00" timeLoss="33.66" rerouteNo="0" devices="tripinfo_flow4.25" vType="vtypeauto" speedFactor="1.06" vaporized=""/>
    <tripinfo id="flow4.23" depart="67.00" departLane="C0C1_0" departPos="4.10" departSpeed="0.00" departDelay="44.00" arrival="132.30" arrivalLane="C3C4_2" arrivalPos="72.80" arrivalSpeed="12.67" duration="65.30" routeLength="368.70" waitingTime="8.70" waitingCount="1" stopTime="0.00" timeLoss="36.22" rerouteNo="0" devices="tripinfo_flow4.23" vType="vtypeauto" speedFactor="0.91" vaporized=""/>
    <tripinfo id="flow4.27" depart="78.30" departLane="C0C1_0" departPos="4.10" departSpeed="0.00" departDelay="51.30" arrival="132.80" arrivalLane="C3C4_1" arrivalPos="72.80" arrivalSpeed="14.77" duration="54.50" routeLength="368.70" waitingTime="0.00" waitingCount="0" stopTime="0.00" timeLoss="29.60" rerouteNo="0" devices="tripinfo_flow4.27" vType="vtypeauto" speedFactor="1.07" vaporized=""/>
    <tripinfo id="flow4.20" depart="58.40" departLane="C0C1_0" departPos="4.10" departSpeed="0.00" departDelay="38.40" arrival="133.00" arrivalLane="C3C4_0" arrivalPos="72.80" arrivalSpeed="10.07" duration="74.60" routeLength="368.70" waitingTime="27.00" waitingCount="1" stopTime="0.00" timeLoss="38.41" rerouteNo="0" devices="tripinfo_flow4.20" vType="vtypeauto" speedFactor="0.73" vaporized=""/>
    <tripinfo id="flow4.29" depart="84.10" departLane="C0C1_0" departPos="4.10" departSpeed="0.00" departDelay="55.10" arrival="133.80" arrivalLane="C3C4_2" arrivalPos="72.80" arrivalSpeed="13.37" duration="49.70" routeLength="368.70" waitingTime="0.00" waitingCount="0" stopTime="0.00" timeLoss="22.37" rerouteNo="0" devices="tripinfo_flow4.29" vType="vtypeauto" speedFactor="0.97" vaporized=""/>
    <tripinfo id="flow4.31" depart="92.40" departLane="C0C1_0" departPos="4.10" departSpeed="0.00" departDelay="61.40" arrival="134.20" arrivalLane="C3C4_1" arrivalPos="72.80" arrivalSpeed="15.89" duration="41.80" routeLength="368.70" waitingTime="0.00" waitingCount="0" stopTime="0.00" timeLoss="18.63" rerouteNo="0" devices="tripinfo_flow4.31" vType="vtypeauto" speedFactor="1.15" vaporized=""/>
    <tripinfo id="flow4.22" depart="64.10" departLane="C0C1_0" departPos="4.10" departSpeed="0.00" departDelay="42.10" arrival="134.60" arrivalLane="C3C4_0" arrivalPos="72.80" arrivalSpeed="12.63" duration="70.50" routeLength="368.70" waitingTime="19.00" waitingCount="1" stopTime="0.00" timeLoss="41.28" rerouteNo="0" devices="tripinfo_flow4.22" vType="vtypeauto" speedFactor="0.91" vaporized=""/>
    <tripinfo id="flow4.32" depart="96.70" departLane="C0C1_0" departPos="4.10" departSpeed="0.00" departDelay="64.70" arrival="135.30" arrivalLane="C3C4_2" arrivalPos="72.80" arrivalSpeed="15.15" duration="38.60" routeLength="368.70" waitingTime="0.00" waitingCount="0" stopTime="0.00" timeLoss="14.23" rerouteNo="0" devices="tripinfo_flow4.32" vType="vtypeauto" speedFactor="1.09" vaporized=""/>