<?xml version="1.0" encoding="UTF-8"?>

<!-- generated on 2024-10-29 12:48:44 by Eclipse SUMO sumo Version 1.20.0
<configuration xmlns:xsi="http://www.w3.org/2001/XMLSchema-instance" xsi:noNamespaceSchemaLocation="http://sumo.dlr.de/xsd/sumoConfiguration.xsd">

    <input>
        <net-file value="./sim_cfg_grid_3_lanes/grid.net.xml"/>
        <route-files value="./sim_cfg_grid_3_lanes/7x1.rou.xml"/>
    </input>

    <output>
        <tripinfo-output value="./sim_cfg_grid_3_lanes/tripinfo-platooning_0.691.xml"/>
    </output>

    <time>
        <begin value="0"/>
        <end value="500"/>
        <step-length value="0.1"/>
    </time>

    <traci_server>
        <remote-port value="49616"/>
    </traci_server>

    <gui_only>
        <gui-settings-file value="./sim_cfg_grid_3_lanes/gui_settings.xml"/>
    </gui_only>

</configuration>
-->

<tripinfos xmlns:xsi="http://www.w3.org/2001/XMLSchema-instance" xsi:noNamespaceSchemaLocation="http://sumo.dlr.de/xsd/tripinfo_file.xsd">
    <tripinfo id="flow1.3" depart="8.40" departLane="A3B3_0" departPos="4.10" departSpeed="0.00" departDelay="5.40" arrival="79.40" arrivalLane="D3E3_2" arrivalPos="72.80" arrivalSpeed="16.07" duration="71.00" routeLength="368.70" waitingTime="36.40" waitingCount="1" stopTime="0.00" timeLoss="48.03" rerouteNo="0" devices="tripinfo_flow1.3" vType="vtypeauto" speedFactor="1.16" vaporized=""/>
    <tripinfo id="flow1.1" depart="2.80" departLane="A3B3_0" departPos="4.10" departSpeed="0.00" departDelay="1.80" arrival="80.40" arrivalLane="D3E3_1" arrivalPos="72.80" arrivalSpeed="12.28" duration="77.60" routeLength="368.70" waitingTime="36.20" waitingCount="2" stopTime="0.00" timeLoss="47.65" rerouteNo="0" devices="tripinfo_flow1.1" vType="vtypeauto" speedFactor="0.89" vaporized=""/>
    <tripinfo id="flow1.0" depart="0.00" departLane="A3B3_0" departPos="4.10" departSpeed="0.00" departDelay="0.00" arrival="80.50" arrivalLane="D3E3_0" arrivalPos="72.80" arrivalSpeed="12.97" duration="80.50" routeLength="368.70" waitingTime="40.20" waitingCount="2" stopTime="0.00" timeLoss="52.21" rerouteNo="0" devices="tripinfo_flow1.0" vType="vtypeauto" speedFactor="0.94" vaporized=""/>
    <tripinfo id="flow2.0" depart="0.00" departLane="A0A1_0" departPos="4.10" departSpeed="0.00" departDelay="0.00" arrival="80.60" arrivalLane="C3D3_0" arrivalPos="72.80" arrivalSpeed="13.96" duration="80.60" routeLength="512.81" waitingTime="24.80" waitingCount="2" stopTime="0.00" timeLoss="40.72" rerouteNo="0" devices="tripinfo_flow2.0" vType="vtypeauto" speedFactor="1.01" vaporized=""/>
    <tripinfo id="flow1.6" depart="16.60" departLane="A3B3_0" departPos="4.10" departSpeed="0.00" departDelay="10.60" arrival="80.80" arrivalLane="D3E3_2" arrivalPos="72.80" arrivalSpeed="16.32" duration="64.20" routeLength="368.70" waitingTime="24.40" waitingCount="1" stopTime="0.00" timeLoss="41.65" rerouteNo="0" devices="tripinfo_flow1.6" vType="vtypeauto" speedFactor="1.18" vaporized=""/>
    <tripinfo id="flow1.2" depart="5.60" departLane="A3B3_0" departPos="4.10" departSpeed="0.00" departDelay="3.60" arrival="81.70" arrivalLane="D3E3_0" arrivalPos="72.80" arrivalSpeed="13.98" duration="76.10" routeLength="368.70" waitingTime="29.00" waitingCount="1" stopTime="0.00" timeLoss="51.58" rerouteNo="0" devices="tripinfo_flow1.2" vType="vtypeauto@flow1.2" speedFactor="1.01" vaporized=""/>
    <tripinfo id="flow1.5" depart="13.90" departLane="A3B3_0" departPos="4.10" departSpeed="0.00" departDelay="8.90" arrival="81.90" arrivalLane="D3E3_1" arrivalPos="72.80" arrivalSpeed="13.89" duration="68.00" routeLength="368.70" waitingTime="28.70" waitingCount="1" stopTime="0.00" timeLoss="43.96" rerouteNo="0" devices="tripinfo_flow1.5" vType="vtypeauto@flow1.5" speedFactor="1.01" vaporized=""/>
    <tripinfo id="flow2.1" depart="2.80" departLane="A0A1_0" departPos="4.10" departSpeed="0.00" departDelay="1.80" arrival="82.10" arrivalLane="C3D3_0" arrivalPos="72.80" arrivalSpeed="13.90" duration="79.30" routeLength="512.81" waitingTime="12.80" waitingCount="2" stopTime="0.00" timeLoss="37.54" rerouteNo="0" devices="tripinfo_flow2.1" vType="vtypeauto@flow2.1" speedFactor="1.01" vaporized=""/>
    <tripinfo id="flow1.4" depart="11.20" departLane="A3B3_0" departPos="4.10" departSpeed="0.00" departDelay="7.20" arrival="82.80" arrivalLane="D3E3_0" arrivalPos="72.80" arrivalSpeed="13.99" duration="71.60" routeLength="368.70" waitingTime="26.80" waitingCount="1" stopTime="0.00" timeLoss="42.39" rerouteNo="0" devices="tripinfo_flow1.4" vType="vtypeauto@flow1.4" speedFactor="1.01" vaporized=""/>
    <tripinfo id="flow1.7" depart="19.40" departLane="A3B3_0" departPos="4.10" departSpeed="0.00" departDelay="12.40" arrival="83.00" arrivalLane="D3E3_1" arrivalPos="72.80" arrivalSpeed="13.99" duration="63.60" routeLength="368.70" waitingTime="23.30" waitingCount="1" stopTime="0.00" timeLoss="37.72" rerouteNo="0" devices="tripinfo_flow1.7" vType="vtypeauto@flow1.7" speedFactor="1.01" vaporized=""/>
    <tripinfo id="flow1.11" depart="30.40" departLane="A3B3_0" departPos="4.10" departSpeed="0.00" departDelay="19.40" arrival="83.10" arrivalLane="D3E3_2" arrivalPos="72.80" arrivalSpeed="12.67" duration="52.70" routeLength="368.70" waitingTime="9.50" waitingCount="1" stopTime="0.00" timeLoss="23.63" rerouteNo="0" devices="tripinfo_flow1.11" vType="vtypeauto" speedFactor="0.91" vaporized=""/>
    <tripinfo id="flow2.2" depart="5.50" departLane="A0A1_0" departPos="4.10" departSpeed="0.00" departDelay="3.50" arrival="83.20" arrivalLane="C3D3_0" arrivalPos="72.80" arrivalSpeed="13.92" duration="77.70" routeLength="512.81" waitingTime="8.50" waitingCount="1" stopTime="0.00" timeLoss="37.86" rerouteNo="0" devices="tripinfo_flow2.2" vType="vtypeauto@flow2.2" speedFactor="1.01" vaporized=""/>
    <tripinfo id="flow1.8" depart="22.10" departLane="A3B3_0" departPos="4.10" departSpeed="0.00" departDelay="14.10" arrival="83.90" arrivalLane="D3E3_0" arrivalPos="72.80" arrivalSpeed="13.88" duration="61.80" routeLength="368.70" waitingTime="15.50" waitingCount="2" stopTime="0.00" timeLoss="32.16" rerouteNo="0" devices="tripinfo_flow1.8" vType="vtypeauto@flow1.8" speedFactor="1.01" vaporized=""/>
    <tripinfo id="flow1.9" depart="24.90" departLane="A3B3_0" departPos="4.10" departSpeed="0.00" departDelay="15.90" arrival="84.10" arrivalLane="D3E3_1" arrivalPos="72.80" arrivalSpeed="13.91" duration="59.20" routeLength="368.70" waitingTime="14.00" waitingCount="2" stopTime="0.00" timeLoss="32.61" rerouteNo="0" devices="tripinfo_flow1.9" vType="vtypeauto@flow1.9" speedFactor="1.01" vaporized=""/>
    <tripinfo id="flow2.3" depart="8.30" departLane="A0A1_0" departPos="4.10" departSpeed="0.00" departDelay="5.30" arrival="84.30" arrivalLane="C3D3_0" arrivalPos="72.80" arrivalSpeed="13.89" duration="76.00" routeLength="512.81" waitingTime="6.20" waitingCount="1" stopTime="0.00" timeLoss="36.94" rerouteNo="0" devices="tripinfo_flow2.3" vType="vtypeauto@flow2.3" speedFactor="1.01" vaporized=""/>
    <tripinfo id="flow1.12" depart="33.30" departLane="A3B3_0" departPos="4.10" departSpeed="0.00" departDelay="21.30" arrival="84.60" arrivalLane="D3E3_2" arrivalPos="72.80" arrivalSpeed="14.63" duration="51.30" routeLength="368.70" waitingTime="7.60" waitingCount="1" stopTime="0.00" timeLoss="26.10" rerouteNo="0" devices="tripinfo_flow1.12" vType="vtypeauto" speedFactor="1.06" vaporized=""/>
    <tripinfo id="flow1.10" depart="27.60" departLane="A3B3_0" departPos="4.10" departSpeed="0.00" departDelay="17.60" arrival="85.00" arrivalLane="D3E3_0" arrivalPos="72.80" arrivalSpeed="13.99" duration="57.40" routeLength="368.70" waitingTime="7.00" waitingCount="2" stopTime="0.00" timeLoss="32.68" rerouteNo="0" devices="tripinfo_flow1.10" vType="vtypeauto@flow1.10" speedFactor="1.01" vaporized=""/>
    <tripinfo id="flow1.13" depart="36.10" departLane="A3B3_0" departPos="4.10" departSpeed="0.00" departDelay="23.10" arrival="85.20" arrivalLane="D3E3_1" arrivalPos="72.80" arrivalSpeed="13.94" duration="49.10" routeLength="368.70" waitingTime="5.80" waitingCount="1" stopTime="0.00" timeLoss="23.97" rerouteNo="0" devices="tripinfo_flow1.13" vType="vtypeauto@flow1.13" speedFactor="1.01" vaporized=""/>
    <tripinfo id="flow2.5" depart="13.90" departLane="A0A1_0" departPos="4.10" departSpeed="0.00" departDelay="8.90" arrival="85.40" arrivalLane="C3D3_0" arrivalPos="72.80" arrivalSpeed="15.10" duration="71.50" routeLength="512.81" waitingTime="4.20" waitingCount="1" stopTime="0.00" timeLoss="34.81" rerouteNo="0" devices="tripinfo_flow2.5" vType="vtypeauto@flow2.5" speedFactor="2.15" vaporized=""/>
    <tripinfo id="flow1.15" depart="41.50" departLane="A3B3_0" departPos="4.10" departSpeed="0.00" departDelay="26.50" arrival="86.10" arrivalLane="D3E3_0" arrivalPos="72.80" arrivalSpeed="13.90" duration="44.60" routeLength="368.70" waitingTime="1.80" waitingCount="1" stopTime="0.00" timeLoss="16.12" rerouteNo="0" devices="tripinfo_flow1.15" vType="vtypeauto@flow1.15" speedFactor="1.01" vaporized=""/>
    <tripinfo id="flow1.14" depart="38.80" departLane="A3B3_0" departPos="4.10" departSpeed="0.00" departDelay="24.80" arrival="86.20" arrivalLane="D3E3_2" arrivalPos="72.80" arrivalSpeed="13.53" duration="47.40" routeLength="368.70" waitingTime="4.30" waitingCount="1" stopTime="0.00" timeLoss="20.12" rerouteNo="0" devices="tripinfo_flow1.14" vType="vtypeauto" speedFactor="0.98" vaporized=""/>
    <tripinfo id="flow1.16" depart="44.30" departLane="A3B3_0" departPos="4.10" departSpeed="0.00" departDelay="28.30" arrival="86.80" arrivalLane="D3E3_1" arrivalPos="72.80" arrivalSpeed="12.53" duration="42.50" routeLength="368.70" waitingTime="0.00" waitingCount="0" stopTime="0.00" timeLoss="13.21" rerouteNo="0" devices="tripinfo_flow1.16" vType="vtypeauto" speedFactor="0.91" vaporized=""/>
    <tripinfo id="flow2.7" depart="19.40" departLane="A0A1_0" departPos="4.10" departSpeed="0.00" departDelay="12.40" arrival="87.00" arrivalLane="C3D3_0" arrivalPos="72.80" arrivalSpeed="14.44" duration="67.60" routeLength="512.81" waitingTime="4.10" waitingCount="2" stopTime="0.00" timeLoss="28.92" rerouteNo="0" devices="tripinfo_flow2.7" vType="vtypeauto" speedFactor="1.04" vaporized=""/>
    <tripinfo id="flow1.17" depart="47.10" departLane="A3B3_0" departPos="4.10" departSpeed="0.00" departDelay="30.10" arrival="87.60" arrivalLane="D3E3_0" arrivalPos="72.80" arrivalSpeed="13.21" duration="40.50" routeLength="368.70" waitingTime="0.00" waitingCount="0" stopTime="0.00" timeLoss="12.61" rerouteNo="0" devices="tripinfo_flow1.17" vType="vtypeauto" speedFactor="0.95" vaporized=""/>
    <tripinfo id="flow1.18" depart="49.90" departLane="A3B3_0" departPos="4.10" departSpeed="0.00" departDelay="31.90" arrival="87.70" arrivalLane="D3E3_2" arrivalPos="72.80" arrivalSpeed="13.30" duration="37.80" routeLength="368.70" waitingTime="0.00" waitingCount="0" stopTime="0.00" timeLoss="10.14" rerouteNo="0" devices="tripinfo_flow1.18" vType="vtypeauto" speedFactor="0.96" vaporized=""/>
    <tripinfo id="flow2.6" depart="16.60" departLane="A0A1_0" departPos="4.10" departSpeed="0.00" departDelay="10.60" arrival="88.60" arrivalLane="C3D3_0" arrivalPos="72.80" arrivalSpeed="15.23" duration="72.00" routeLength="512.81" waitingTime="2.60" waitingCount="2" stopTime="0.00" timeLoss="35.29" rerouteNo="0" devices="tripinfo_flow2.6" vType="vtypeauto" speedFactor="1.10" vaporized=""/>
    <tripinfo id="flow2.8" depart="22.20" departLane="A0A1_0" departPos="4.10" departSpeed="0.00" departDelay="14.20" arrival="92.20" arrivalLane="C3D3_0" arrivalPos="72.80" arrivalSpeed="11.76" duration="70.00" routeLength="512.81" waitingTime="3.30" waitingCount="1" stopTime="0.00" timeLoss="22.77" rerouteNo="0" devices="tripinfo_flow2.8" vType="vtypeauto" speedFactor="0.85" vaporized=""/>
    <tripinfo id="flow2.9" depart="25.00" departLane="A0A1_0" departPos="4.10" departSpeed="0.00" departDelay="16.00" arrival="94.30" arrivalLane="C3D3_0" arrivalPos="72.80" arrivalSpeed="12.37" duration="69.30" routeLength="512.81" waitingTime="2.90" waitingCount="2" stopTime="0.00" timeLoss="24.46" rerouteNo="0" devices="tripinfo_flow2.9" vType="vtypeauto" speedFactor="0.90" vaporized=""/>
    <tripinfo id="flow2.4" depart="11.00" departLane="A0A1_0" departPos="4.10" departSpeed="0.00" departDelay="7.00" arrival="96.40" arrivalLane="C3D3_0" arrivalPos="72.80" arrivalSpeed="12.69" duration="85.40" routeLength="512.81" waitingTime="0.00" waitingCount="0" stopTime="0.00" timeLoss="41.42" rerouteNo="0" devices="tripinfo_flow2.4" vType="vtypeauto" speedFactor="0.92" vaporized=""/>
    <tripinfo id="flow2.11" depart="30.50" departLane="A0A1_0" departPos="4.10" departSpeed="0.00" departDelay="19.50" arrival="98.10" arrivalLane="C3D3_0" arrivalPos="72.80" arrivalSpeed="14.41" duration="67.60" routeLength="512.81" waitingTime="0.00" waitingCount="0" stopTime="0.00" timeLoss="28.86" rerouteNo="0" devices="tripinfo_flow2.11" vType="vtypeauto" speedFactor="1.04" vaporized=""/>
    <tripinfo id="flow2.13" depart="36.10" departLane="A0A1_0" departPos="4.10" departSpeed="0.00" departDelay="23.10" arrival="100.30" arrivalLane="C3D3_0" arrivalPos="72.80" arrivalSpeed="14.33" duration="64.20" routeLength="512.81" waitingTime="0.00" waitingCount="0" stopTime="0.00" timeLoss="25.19" rerouteNo="0" devices="tripinfo_flow2.13" vType="vtypeauto" speedFactor="1.03" vaporized=""/>
    <tripinfo id="flow2.10" depart="27.70" departLane="A0A1_0" departPos="4.10" departSpeed="0.00" departDelay="17.70" arrival="102.50" arrivalLane="C3D3_0" arrivalPos="72.80" arrivalSpeed="14.09" duration="74.80" routeLength="512.81" waitingTime="4.10" waitingCount="3" stopTime="0.00" timeLoss="35.10" rerouteNo="0" devices="tripinfo_flow2.10" vType="vtypeauto" speedFactor="1.02" vaporized=""/>
    <tripinfo id="flow2.15" depart="41.70" departLane="A0A1_0" departPos="4.10" departSpeed="0.00" departDelay="26.70" arrival="106.00" arrivalLane="C3D3_0" arrivalPos="72.80" arrivalSpeed="11.47" duration="64.30" routeLength="512.81" waitingTime="0.00" waitingCount="0" stopTime="0.00" timeLoss="15.89" rerouteNo="0" devices="tripinfo_flow2.15" vType="vtypeauto" speedFactor="0.83" vaporized=""/>
    <tripinfo id="flow2.12" depart="33.30" departLane="A0A1_0" departPos="4.10" departSpeed="0.00" departDelay="21.30" arrival="107.70" arrivalLane="C3D3_0" arrivalPos="72.80" arrivalSpeed="13.18" duration="74.40" routeLength="512.81" waitingTime="0.20" waitingCount="2" stopTime="0.00" timeLoss="32.04" rerouteNo="0" devices="tripinfo_flow2.12" vType="vtypeauto" speedFactor="0.96" vaporized=""/>
    <tripinfo id="flow5.3" depart="8.40" departLane="D4D3_0" departPos="4.10" departSpeed="0.00" departDelay="5.40" arrival="111.70" arrivalLane="D1D0_1" arrivalPos="72.80" arrivalSpeed="12.24" duration="103.30" routeLength="368.70" waitingTime="58.00" waitingCount="2" stopTime="0.00" timeLoss="73.41" rerouteNo="0" devices="tripinfo_flow5.3" vType="vtypeauto" speedFactor="0.89" vaporized=""/>
    <tripinfo id="flow5.4" depart="11.20" departLane="D4D3_0" departPos="4.10" departSpeed="0.00" departDelay="7.20" arrival="112.90" arrivalLane="D1D0_2" arrivalPos="72.80" arrivalSpeed="12.86" duration="101.70" routeLength="368.70" waitingTime="51.40" waitingCount="2" stopTime="0.00" timeLoss="73.14" rerouteNo="0" devices="tripinfo_flow5.4" vType="vtypeauto" speedFactor="0.93" vaporized=""/>
    <tripinfo id="flow3.0" depart="0.00" departLane="C0C1_0" departPos="4.10" departSpeed="0.00" departDelay="0.00" arrival="113.60" arrivalLane="D4E4_0" arrivalPos="76.80" arrivalSpeed="14.98" duration="113.60" routeLength="1052.87" waitingTime="14.40" waitingCount="2" stopTime="0.00" timeLoss="36.76" rerouteNo="0" devices="tripinfo_flow3.0" vType="vtypeauto" speedFactor="1.08" vaporized=""/>
    <tripinfo id="flow5.9" depart="25.20" departLane="D4D3_0" departPos="4.10" departSpeed="0.00" departDelay="16.20" arrival="114.40" arrivalLane="D1D0_2" arrivalPos="72.80" arrivalSpeed="13.40" duration="89.20" routeLength="368.70" waitingTime="37.30" waitingCount="2" stopTime="0.00" timeLoss="61.83" rerouteNo="0" devices="tripinfo_flow5.9" vType="vtypeauto" speedFactor="0.97" vaporized=""/>
    <tripinfo id="flow5.12" depart="33.60" departLane="D4D3_0" departPos="4.10" departSpeed="0.00" departDelay="21.60" arrival="116.00" arrivalLane="D1D0_2" arrivalPos="72.80" arrivalSpeed="13.55" duration="82.40" routeLength="368.70" waitingTime="28.90" waitingCount="2" stopTime="0.00" timeLoss="55.33" rerouteNo="0" devices="tripinfo_flow5.12" vType="vtypeauto" speedFactor="0.98" vaporized=""/>
    <tripinfo id="flow5.15" depart="42.10" departLane="D4D3_0" departPos="4.10" departSpeed="0.00" departDelay="27.10" arrival="117.50" arrivalLane="D1D0_2" arrivalPos="72.80" arrivalSpeed="14.60" duration="75.40" routeLength="368.70" waitingTime="20.80" waitingCount="2" stopTime="0.00" timeLoss="50.22" rerouteNo="0" devices="tripinfo_flow5.15" vType="vtypeauto" speedFactor="1.06" vaporized=""/>
    <tripinfo id="flow5.18" depart="50.40" departLane="D4D3_0" departPos="4.10" departSpeed="0.00" departDelay="32.40" arrival="119.00" arrivalLane="D1D0_2" arrivalPos="72.80" arrivalSpeed="13.97" duration="68.60" routeLength="368.70" waitingTime="26.60" waitingCount="1" stopTime="0.00" timeLoss="42.30" rerouteNo="0" devices="tripinfo_flow5.18" vType="vtypeauto" speedFactor="1.01" vaporized=""/>
    <tripinfo id="flow5.1" depart="2.80" departLane="D4D3_0" departPos="4.10" departSpeed="0.00" departDelay="1.80" arrival="120.30" arrivalLane="D1D0_1" arrivalPos="72.80" arrivalSpeed="14.19" duration="117.50" routeLength="368.70" waitingTime="65.70" waitingCount="4" stopTime="0.00" timeLoss="91.59" rerouteNo="0" devices="tripinfo_flow5.1" vType="vtypeauto" speedFactor="1.03" vaporized=""/>
    <tripinfo id="flow0.7" depart="12.30" departLane="B4B3_0" departPos="4.10" departSpeed="0.00" departDelay="5.30" arrival="121.20" arrivalLane="B3A3_0" arrivalPos="72.80" arrivalSpeed="15.15" duration="108.90" routeLength="560.63" waitingTime="47.20" waitingCount="2" stopTime="0.00" timeLoss="70.23" rerouteNo="0" devices="tripinfo_flow0.7" vType="vtypeauto" speedFactor="1.09" vaporized=""/>
    <tripinfo id="flow5.6" depart="16.90" departLane="D4D3_0" departPos="4.10" departSpeed="0.00" departDelay="10.90" arrival="122.00" arrivalLane="D1D0_2" arrivalPos="72.80" arrivalSpeed="13.27" duration="105.10" routeLength="368.70" waitingTime="53.40" waitingCount="3" stopTime="0.00" timeLoss="77.28" rerouteNo="0" devices="tripinfo_flow5.6" vType="vtypeauto" speedFactor="0.96" vaporized=""/>
    <tripinfo id="flow5.2" depart="5.60" departLane="D4D3_0" departPos="4.10" departSpeed="0.00" departDelay="3.60" arrival="122.40" arrivalLane="D1D0_1" arrivalPos="72.80" arrivalSpeed="13.03" duration="116.80" routeLength="368.70" waitingTime="55.20" waitingCount="3" stopTime="0.00" timeLoss="88.58" rerouteNo="0" devices="tripinfo_flow5.2" vType="vtypeauto" speedFactor="0.94" vaporized=""/>
    <tripinfo id="flow0.0" depart="0.00" departLane="B4B3_0" departPos="4.10" departSpeed="0.00" departDelay="0.00" arrival="123.00" arrivalLane="B3A3_2" arrivalPos="72.80" arrivalSpeed="14.65" duration="123.00" routeLength="560.63" waitingTime="53.70" waitingCount="3" stopTime="0.00" timeLoss="83.20" rerouteNo="0" devices="tripinfo_flow0.0" vType="vtypeauto" speedFactor="1.06" vaporized=""/>
    <tripinfo id="flow3.1" depart="1.00" departLane="C0C1_0" departPos="4.10" departSpeed="0.00" departDelay="0.00" arrival="123.60" arrivalLane="D4E4_0" arrivalPos="76.80" arrivalSpeed="11.85" duration="122.60" routeLength="1052.87" waitingTime="1.70" waitingCount="1" stopTime="0.00" timeLoss="25.60" rerouteNo="0" devices="tripinfo_flow3.1" vType="vtypeauto" speedFactor="0.86" vaporized=""/>
    <tripinfo id="flow0.8" depart="13.90" departLane="B4B3_0" departPos="4.10" departSpeed="0.00" departDelay="5.90" arrival="125.20" arrivalLane="B3A3_2" arrivalPos="72.80" arrivalSpeed="12.18" duration="111.30" routeLength="560.63" waitingTime="31.80" waitingCount="6" stopTime="0.00" timeLoss="63.16" rerouteNo="0" devices="tripinfo_flow0.8" vType="vtypeauto" speedFactor="0.88" vaporized=""/>
    <tripinfo id="flow5.5" depart="14.10" departLane="D4D3_0" departPos="4.10" departSpeed="0.00" departDelay="9.10" arrival="126.40" arrivalLane="D1D0_2" arrivalPos="72.80" arrivalSpeed="14.06" duration="112.30" routeLength="368.70" waitingTime="49.50" waitingCount="3" stopTime="0.00" timeLoss="86.27" rerouteNo="0" devices="tripinfo_flow5.5" vType="vtypeauto" speedFactor="1.02" vaporized=""/>
    <tripinfo id="flow5.0" depart="0.00" departLane="D4D3_0" departPos="4.10" departSpeed="0.00" departDelay="0.00" arrival="131.00" arrivalLane="D1D0_2" arrivalPos="72.80" arrivalSpeed="11.44" duration="131.00" routeLength="368.70" waitingTime="63.40" waitingCount="4" stopTime="0.00" timeLoss="99.00" rerouteNo="0" devices="tripinfo_flow5.0" vType="vtypeauto" speedFactor="0.83" vaporized=""/>
    <tripinfo id="flow1.20" depart="55.50" departLane="A3B3_0" departPos="4.10" departSpeed="0.00" departDelay="35.50" arrival="154.40" arrivalLane="D3E3_1" arrivalPos="72.80" arrivalSpeed="15.28" duration="98.90" routeLength="368.70" waitingTime="56.30" waitingCount="3" stopTime="0.00" timeLoss="74.83" rerouteNo="0" devices="tripinfo_flow1.20" vType="vtypeauto" speedFactor="1.10" vaporized=""/>
    <tripinfo id="flow1.22" depart="61.10" departLane="A3B3_0" departPos="4.10" departSpeed="0.00" departDelay="39.10" arrival="154.50" arrivalLane="D3E3_1" arrivalPos="72.80" arrivalSpeed="14.39" duration="93.40" routeLength="368.70" waitingTime="45.40" waitingCount="2" stopTime="0.00" timeLoss="67.75" rerouteNo="0" devices="tripinfo_flow1.22" vType="vtypeauto" speedFactor="1.04" vaporized=""/>
    <tripinfo id="flow1.26" depart="72.20" departLane="A3B3_0" departPos="4.10" departSpeed="0.00" departDelay="46.20" arrival="155.90" arrivalLane="D3E3_1" arrivalPos="72.80" arrivalSpeed="13.93" duration="83.70" routeLength="368.70" waitingTime="32.30" waitingCount="3" stopTime="0.00" timeLoss="57.52" rerouteNo="0" devices="tripinfo_flow1.26" vType="vtypeauto@flow1.26" speedFactor="1.01" vaporized=""/>
    <tripinfo id="flow1.25" depart="69.40" departLane="A3B3_0" departPos="4.10" departSpeed="0.00" departDelay="44.40" arrival="156.00" arrivalLane="D3E3_2" arrivalPos="72.80" arrivalSpeed="13.90" duration="86.60" routeLength="368.70" waitingTime="30.10" waitingCount="2" stopTime="0.00" timeLoss="60.18" rerouteNo="0" devices="tripinfo_flow1.25" vType="vtypeauto" speedFactor="1.00" vaporized=""/>
    <tripinfo id="flow1.29" depart="80.40" departLane="A3B3_0" departPos="4.10" departSpeed="0.00" departDelay="51.40" arrival="157.10" arrivalLane="D3E3_1" arrivalPos="72.80" arrivalSpeed="13.96" duration="76.70" routeLength="368.70" waitingTime="23.20" waitingCount="3" stopTime="0.00" timeLoss="50.02" rerouteNo="0" devices="tripinfo_flow1.29" vType="vtypeauto@flow1.29" speedFactor="1.01" vaporized=""/>
    <tripinfo id="flow1.28" depart="77.70" departLane="A3B3_0" departPos="4.10" departSpeed="0.00" departDelay="49.70" arrival="157.90" arrivalLane="D3E3_2" arrivalPos="72.80" arrivalSpeed="13.02" duration="80.20" routeLength="368.70" waitingTime="21.20" waitingCount="2" stopTime="0.00" timeLoss="51.91" rerouteNo="0" devices="tripinfo_flow1.28" vType="vtypeauto" speedFactor="0.94" vaporized=""/>
    <tripinfo id="flow1.32" depart="88.80" departLane="A3B3_0" departPos="4.10" departSpeed="0.00" departDelay="56.80" arrival="158.30" arrivalLane="D3E3_1" arrivalPos="72.80" arrivalSpeed="13.88" duration="69.50" routeLength="368.70" waitingTime="13.60" waitingCount="2" stopTime="0.00" timeLoss="43.30" rerouteNo="0" devices="tripinfo_flow1.32" vType="vtypeauto@flow1.32" speedFactor="1.01" vaporized=""/>
    <tripinfo id="flow1.31" depart="86.00" departLane="A3B3_0" departPos="4.10" departSpeed="0.00" departDelay="55.00" arrival="159.70" arrivalLane="D3E3_2" arrivalPos="72.80" arrivalSpeed="12.29" duration="73.70" routeLength="368.70" waitingTime="12.50" waitingCount="2" stopTime="0.00" timeLoss="43.86" rerouteNo="0" devices="tripinfo_flow1.31" vType="vtypeauto" speedFactor="0.89" vaporized=""/>
    <tripinfo id="flow1.35" depart="96.20" departLane="A3B3_0" departPos="4.10" departSpeed="0.00" departDelay="61.20" arrival="159.80" arrivalLane="D3E3_1" arrivalPos="72.80" arrivalSpeed="14.31" duration="63.60" routeLength="368.70" waitingTime="4.80" waitingCount="1" stopTime="0.00" timeLoss="37.97" rerouteNo="0" devices="tripinfo_flow1.35" vType="vtypeauto" speedFactor="1.04" vaporized=""/>
    <tripinfo id="flow1.34" depart="94.50" departLane="A3B3_0" departPos="4.10" departSpeed="0.00" departDelay="60.50" arrival="161.20" arrivalLane="D3E3_2" arrivalPos="72.80" arrivalSpeed="14.17" duration="66.70" routeLength="368.70" waitingTime="4.10" waitingCount="2" stopTime="0.00" timeLoss="40.66" rerouteNo="0" devices="tripinfo_flow1.34" vType="vtypeauto" speedFactor="1.02" vaporized=""/>
    <tripinfo id="flow1.38" depart="101.90" departLane="A3B3_0" departPos="4.10" departSpeed="0.00" departDelay="63.90" arrival="161.40" arrivalLane="D3E3_1" arrivalPos="72.80" arrivalSpeed="13.70" duration="59.50" routeLength="368.70" waitingTime="3.40" waitingCount="1" stopTime="0.00" timeLoss="32.76" rerouteNo="0" devices="tripinfo_flow1.38" vType="vtypeauto" speedFactor="0.99" vaporized=""/>
    <tripinfo id="flow3.2" depart="2.00" departLane="C0C1_0" departPos="4.10" departSpeed="0.00" departDelay="0.00" arrival="162.50" arrivalLane="D4E4_0" arrivalPos="76.80" arrivalSpeed="12.78" duration="160.50" routeLength="1052.87" waitingTime="29.50" waitingCount="4" stopTime="0.00" timeLoss="70.81" rerouteNo="0" devices="tripinfo_flow3.2" vType="vtypeauto" speedFactor="0.93" vaporized=""/>
    <tripinfo id="flow1.37" depart="101.00" departLane="A3B3_0" departPos="4.10" departSpeed="0.00" departDelay="64.00" arrival="162.60" arrivalLane="D3E3_2" arrivalPos="72.80" arrivalSpeed="14.78" duration="61.60" routeLength="368.70" waitingTime="0.20" waitingCount="1" stopTime="0.00" timeLoss="36.64" rerouteNo="0" devices="tripinfo_flow1.37" vType="vtypeauto" speedFactor="1.06" vaporized=""/>
    <tripinfo id="flow1.41" depart="106.40" departLane="A3B3_0" departPos="4.10" departSpeed="0.00" departDelay="65.40" arrival="162.90" arrivalLane="D3E3_1" arrivalPos="72.80" arrivalSpeed="14.34" duration="56.50" routeLength="368.70" waitingTime="2.20" waitingCount="1" stopTime="0.00" timeLoss="30.92" rerouteNo="0" devices="tripinfo_flow1.41" vType="vtypeauto" speedFactor="1.04" vaporized=""/>
    <tripinfo id="flow1.40" depart="106.00" departLane="A3B3_0" departPos="4.10" departSpeed="0.00" departDelay="66.00" arrival="164.20" arrivalLane="D3E3_2" arrivalPos="72.80" arrivalSpeed="14.02" duration="58.20" routeLength="368.70" waitingTime="0.00" waitingCount="0" stopTime="0.00" timeLoss="31.91" rerouteNo="0" devices="tripinfo_flow1.40" vType="vtypeauto" speedFactor="1.01" vaporized=""/>
    <tripinfo id="flow1.44" depart="112.20" departLane="A3B3_0" departPos="4.10" departSpeed="0.00" departDelay="68.20" arrival="164.50" arrivalLane="D3E3_1" arrivalPos="72.80" arrivalSpeed="13.34" duration="52.30" routeLength="368.70" waitingTime="0.00" waitingCount="0" stopTime="0.00" timeLoss="24.77" rerouteNo="0" devices="tripinfo_flow1.44" vType="vtypeauto" speedFactor="0.96" vaporized=""/>
    <tripinfo id="flow1.46" depart="121.80" departLane="A3B3_0" departPos="4.10" departSpeed="0.00" departDelay="75.80" arrival="166.00" arrivalLane="D3E3_1" arrivalPos="72.80" arrivalSpeed="15.93" duration="44.20" routeLength="368.70" waitingTime="0.00" waitingCount="0" stopTime="0.00" timeLoss="22.16" rerouteNo="0" devices="tripinfo_flow1.46" vType="vtypeauto" speedFactor="1.21" vaporized=""/>
    <tripinfo id="flow1.43" depart="111.80" departLane="A3B3_0" departPos="4.10" departSpeed="0.00" departDelay="68.80" arrival="166.50" arrivalLane="D3E3_2" arrivalPos="72.80" arrivalSpeed="11.53" duration="54.70" routeLength="368.70" waitingTime="0.10" waitingCount="1" stopTime="0.00" timeLoss="22.94" rerouteNo="0" devices="tripinfo_flow1.43" vType="vtypeauto" speedFactor="0.84" vaporized=""/>
    <tripinfo id="flow1.48" depart="128.60" departLane="A3B3_0" departPos="4.10" departSpeed="0.00" departDelay="80.60" arrival="167.40" arrivalLane="D3E3_1" arrivalPos="72.80" arrivalSpeed="16.58" duration="38.80" routeLength="368.70" waitingTime="0.00" waitingCount="0" stopTime="0.00" timeLoss="16.48" rerouteNo="0" devices="tripinfo_flow1.48" vType="vtypeauto" speedFactor="1.19" vaporized=""/>
    <tripinfo id="flow1.23" depart="63.80" departLane="A3B3_0" departPos="4.10" departSpeed="0.00" departDelay="40.80" arrival="168.10" arrivalLane="D3E3_0" arrivalPos="72.80" arrivalSpeed="13.98" duration="104.30" routeLength="368.70" waitingTime="55.30" waitingCount="4" stopTime="0.00" timeLoss="77.70" rerouteNo="0" devices="tripinfo_flow1.23" vType="vtypeauto@flow1.23" speedFactor="1.01" vaporized=""/>
    <tripinfo id="flow1.45" depart="113.70" departLane="A3B3_0" departPos="4.10" departSpeed="0.00" departDelay="68.70" arrival="168.20" arrivalLane="D3E3_2" arrivalPos="72.80" arrivalSpeed="12.04" duration="54.50" routeLength="368.70" waitingTime="3.00" waitingCount="1" stopTime="0.00" timeLoss="23.80" rerouteNo="0" devices="tripinfo_flow1.45" vType="vtypeauto" speedFactor="0.87" vaporized=""/>
    <tripinfo id="flow4.0" depart="0.00" departLane="E2D2_0" departPos="4.10" departSpeed="0.00" departDelay="0.00" arrival="168.40" arrivalLane="B1A1_0" arrivalPos="72.80" arrivalSpeed="14.27" duration="168.40" routeLength="606.12" waitingTime="100.20" waitingCount="4" stopTime="0.00" timeLoss="122.17" rerouteNo="0" devices="tripinfo_flow4.0" vType="vtypeauto" speedFactor="1.03" vaporized=""/>