<?xml version="1.0" encoding="UTF-8"?>

<!-- generated on 2024-10-29 13:57:55 by Eclipse SUMO sumo Version 1.20.0
<configuration xmlns:xsi="http://www.w3.org/2001/XMLSchema-instance" xsi:noNamespaceSchemaLocation="http://sumo.dlr.de/xsd/sumoConfiguration.xsd">

    <input>
        <net-file value="./sim_cfg_grid_3_lanes/grid.net.xml"/>
        <route-files value="./sim_cfg_grid_3_lanes/10x0.3.rou.xml"/>
    </input>

    <output>
        <tripinfo-output value="./sim_cfg_grid_3_lanes/tripinfo-platooning_0.384.xml"/>
    </output>

    <time>
        <begin value="0"/>
        <end value="500"/>
        <step-length value="0.1"/>
    </time>

    <traci_server>
        <remote-port value="49728"/>
    </traci_server>

    <gui_only>
        <gui-settings-file value="./sim_cfg_grid_3_lanes/gui_settings.xml"/>
    </gui_only>

</configuration>
-->

<tripinfos xmlns:xsi="http://www.w3.org/2001/XMLSchema-instance" xsi:noNamespaceSchemaLocation="http://sumo.dlr.de/xsd/tripinfo_file.xsd">
    <tripinfo id="flow9.1" depart="3.00" departLane="A2B2_0" departPos="4.10" departSpeed="0.00" departDelay="0.00" arrival="40.40" arrivalLane="D2E2_1" arrivalPos="72.80" arrivalSpeed="16.01" duration="37.40" routeLength="368.70" waitingTime="4.20" waitingCount="1" stopTime="0.00" timeLoss="14.48" rerouteNo="0" devices="tripinfo_flow9.1" vType="vtypeauto" speedFactor="1.16" vaporized=""/>
    <tripinfo id="flow9.3" depart="9.00" departLane="A2B2_0" departPos="4.10" departSpeed="0.00" departDelay="0.00" arrival="42.70" arrivalLane="D2E2_2" arrivalPos="72.80" arrivalSpeed="12.43" duration="33.70" routeLength="368.70" waitingTime="0.00" waitingCount="0" stopTime="0.00" timeLoss="4.15" rerouteNo="0" devices="tripinfo_flow9.3" vType="vtypeauto" speedFactor="0.90" vaporized=""/>
    <tripinfo id="flow9.0" depart="0.00" departLane="A2B2_0" departPos="4.10" departSpeed="0.00" departDelay="0.00" arrival="43.80" arrivalLane="D2E2_0" arrivalPos="72.80" arrivalSpeed="11.81" duration="43.80" routeLength="368.70" waitingTime="6.00" waitingCount="1" stopTime="0.00" timeLoss="12.82" rerouteNo="0" devices="tripinfo_flow9.0" vType="vtypeauto" speedFactor="0.86" vaporized=""/>
    <tripinfo id="flow9.2" depart="6.00" departLane="A2B2_0" departPos="4.10" departSpeed="0.00" departDelay="0.00" arrival="45.40" arrivalLane="D2E2_0" arrivalPos="72.80" arrivalSpeed="12.81" duration="39.40" routeLength="368.70" waitingTime="0.00" waitingCount="0" stopTime="0.00" timeLoss="10.86" rerouteNo="0" devices="tripinfo_flow9.2" vType="vtypeauto" speedFactor="0.93" vaporized=""/>
    <tripinfo id="flow9.4" depart="12.00" departLane="A2B2_0" departPos="4.10" departSpeed="0.00" departDelay="0.00" arrival="46.70" arrivalLane="D2E2_1" arrivalPos="72.80" arrivalSpeed="11.71" duration="34.70" routeLength="368.70" waitingTime="0.00" waitingCount="0" stopTime="0.00" timeLoss="3.49" rerouteNo="0" devices="tripinfo_flow9.4" vType="vtypeauto" speedFactor="0.85" vaporized=""/>
    <tripinfo id="flow9.5" depart="15.00" departLane="A2B2_0" departPos="4.10" departSpeed="0.00" departDelay="0.00" arrival="46.90" arrivalLane="D2E2_0" arrivalPos="72.80" arrivalSpeed="13.42" duration="31.90" routeLength="368.70" waitingTime="0.00" waitingCount="0" stopTime="0.00" timeLoss="4.53" rerouteNo="0" devices="tripinfo_flow9.5" vType="vtypeauto" speedFactor="0.97" vaporized=""/>
    <tripinfo id="flow9.6" depart="18.00" departLane="A2B2_0" departPos="4.10" departSpeed="0.00" departDelay="0.00" arrival="48.50" arrivalLane="D2E2_0" arrivalPos="72.80" arrivalSpeed="14.12" duration="30.50" routeLength="368.70" waitingTime="0.00" waitingCount="0" stopTime="0.00" timeLoss="4.44" rerouteNo="0" devices="tripinfo_flow9.6" vType="vtypeauto" speedFactor="1.02" vaporized=""/>
    <tripinfo id="flow9.7" depart="21.00" departLane="A2B2_0" departPos="4.10" departSpeed="0.00" departDelay="0.00" arrival="49.90" arrivalLane="D2E2_0" arrivalPos="72.80" arrivalSpeed="15.08" duration="28.90" routeLength="368.70" waitingTime="0.00" waitingCount="0" stopTime="0.00" timeLoss="4.48" rerouteNo="0" devices="tripinfo_flow9.7" vType="vtypeauto" speedFactor="1.09" vaporized=""/>
    <tripinfo id="flow4.0" depart="0.40" departLane="C0C1_0" departPos="4.10" departSpeed="0.00" departDelay="0.40" arrival="78.60" arrivalLane="C3C4_0" arrivalPos="72.80" arrivalSpeed="14.21" duration="78.20" routeLength="368.70" waitingTime="35.40" waitingCount="3" stopTime="0.00" timeLoss="52.42" rerouteNo="0" devices="tripinfo_flow4.0" vType="vtypeauto" speedFactor="1.03" vaporized=""/>
    <tripinfo id="flow4.1" depart="3.30" departLane="C0C1_0" departPos="4.10" departSpeed="0.00" departDelay="0.30" arrival="78.80" arrivalLane="C3C4_0" arrivalPos="72.80" arrivalSpeed="13.72" duration="75.50" routeLength="368.70" waitingTime="32.10" waitingCount="3" stopTime="0.00" timeLoss="48.63" rerouteNo="0" devices="tripinfo_flow4.1" vType="vtypeauto" speedFactor="0.99" vaporized=""/>
    <tripinfo id="flow4.3" depart="9.20" departLane="C0C1_0" departPos="4.10" departSpeed="0.00" departDelay="0.20" arrival="78.80" arrivalLane="C3C4_2" arrivalPos="72.80" arrivalSpeed="13.73" duration="69.60" routeLength="368.70" waitingTime="27.60" waitingCount="2" stopTime="0.00" timeLoss="42.87" rerouteNo="0" devices="tripinfo_flow4.3" vType="vtypeauto" speedFactor="0.99" vaporized=""/>
    <tripinfo id="flow1.3" depart="9.00" departLane="A3B3_0" departPos="4.10" departSpeed="0.00" departDelay="0.00" arrival="79.40" arrivalLane="D3E3_2" arrivalPos="72.80" arrivalSpeed="15.96" duration="70.40" routeLength="368.70" waitingTime="36.90" waitingCount="1" stopTime="0.00" timeLoss="47.31" rerouteNo="0" devices="tripinfo_flow1.3" vType="vtypeauto" speedFactor="1.15" vaporized=""/>
    <tripinfo id="flow4.4" depart="12.10" departLane="C0C1_0" departPos="4.10" departSpeed="0.00" departDelay="0.10" arrival="80.20" arrivalLane="C3C4_1" arrivalPos="72.80" arrivalSpeed="14.41" duration="68.10" routeLength="368.70" waitingTime="19.20" waitingCount="2" stopTime="0.00" timeLoss="42.65" rerouteNo="0" devices="tripinfo_flow4.4" vType="vtypeauto" speedFactor="1.04" vaporized=""/>
    <tripinfo id="flow1.1" depart="3.00" departLane="A3B3_0" departPos="4.10" departSpeed="0.00" departDelay="0.00" arrival="80.30" arrivalLane="D3E3_1" arrivalPos="72.80" arrivalSpeed="14.17" duration="77.30" routeLength="368.70" waitingTime="37.70" waitingCount="2" stopTime="0.00" timeLoss="51.37" rerouteNo="0" devices="tripinfo_flow1.1" vType="vtypeauto" speedFactor="1.03" vaporized=""/>
    <tripinfo id="flow1.0" depart="0.00" departLane="A3B3_0" departPos="4.10" departSpeed="0.00" departDelay="0.00" arrival="80.40" arrivalLane="D3E3_0" arrivalPos="72.80" arrivalSpeed="12.93" duration="80.40" routeLength="368.70" waitingTime="40.20" waitingCount="2" stopTime="0.00" timeLoss="52.03" rerouteNo="0" devices="tripinfo_flow1.0" vType="vtypeauto" speedFactor="0.94" vaporized=""/>
    <tripinfo id="flow1.6" depart="18.00" departLane="A3B3_0" departPos="4.10" departSpeed="0.00" departDelay="0.00" arrival="80.90" arrivalLane="D3E3_2" arrivalPos="72.80" arrivalSpeed="15.47" duration="62.90" routeLength="368.70" waitingTime="24.00" waitingCount="1" stopTime="0.00" timeLoss="39.15" rerouteNo="0" devices="tripinfo_flow1.6" vType="vtypeauto" speedFactor="1.12" vaporized=""/>
    <tripinfo id="flow4.2" depart="6.10" departLane="C0C1_0" departPos="4.10" departSpeed="0.00" departDelay="0.10" arrival="81.10" arrivalLane="C3C4_0" arrivalPos="72.80" arrivalSpeed="11.39" duration="75.00" routeLength="368.70" waitingTime="19.40" waitingCount="2" stopTime="0.00" timeLoss="42.84" rerouteNo="0" devices="tripinfo_flow4.2" vType="vtypeauto" speedFactor="0.83" vaporized=""/>
    <tripinfo id="flow1.4" depart="12.00" departLane="A3B3_0" departPos="4.10" departSpeed="0.00" departDelay="0.00" arrival="81.80" arrivalLane="D3E3_1" arrivalPos="72.80" arrivalSpeed="13.97" duration="69.80" routeLength="368.70" waitingTime="29.00" waitingCount="1" stopTime="0.00" timeLoss="42.47" rerouteNo="0" devices="tripinfo_flow1.4" vType="vtypeauto@flow1.4" speedFactor="1.01" vaporized=""/>
    <tripinfo id="flow1.2" depart="6.00" departLane="A3B3_0" departPos="4.10" departSpeed="0.00" departDelay="0.00" arrival="81.90" arrivalLane="D3E3_0" arrivalPos="72.80" arrivalSpeed="13.84" duration="75.90" routeLength="368.70" waitingTime="29.10" waitingCount="1" stopTime="0.00" timeLoss="49.57" rerouteNo="0" devices="tripinfo_flow1.2" vType="vtypeauto@flow1.2" speedFactor="1.01" vaporized=""/>
    <tripinfo id="flow1.8" depart="24.00" departLane="A3B3_0" departPos="4.10" departSpeed="0.00" departDelay="0.00" arrival="82.90" arrivalLane="D3E3_1" arrivalPos="72.80" arrivalSpeed="13.92" duration="58.90" routeLength="368.70" waitingTime="14.20" waitingCount="2" stopTime="0.00" timeLoss="32.37" rerouteNo="0" devices="tripinfo_flow1.8" vType="vtypeauto@flow1.8" speedFactor="1.01" vaporized=""/>
    <tripinfo id="flow1.10" depart="30.00" departLane="A3B3_0" departPos="4.10" departSpeed="0.00" departDelay="0.00" arrival="82.90" arrivalLane="D3E3_2" arrivalPos="72.80" arrivalSpeed="13.23" duration="52.90" routeLength="368.70" waitingTime="12.00" waitingCount="1" stopTime="0.00" timeLoss="25.13" rerouteNo="0" devices="tripinfo_flow1.10" vType="vtypeauto" speedFactor="0.96" vaporized=""/>
    <tripinfo id="flow1.5" depart="15.00" departLane="A3B3_0" departPos="4.10" departSpeed="0.00" departDelay="0.00" arrival="83.00" arrivalLane="D3E3_0" arrivalPos="72.80" arrivalSpeed="13.89" duration="68.00" routeLength="368.70" waitingTime="26.90" waitingCount="1" stopTime="0.00" timeLoss="44.10" rerouteNo="0" devices="tripinfo_flow1.5" vType="vtypeauto@flow1.5" speedFactor="1.01" vaporized=""/>
    <tripinfo id="flow1.11" depart="33.00" departLane="A3B3_0" departPos="4.10" departSpeed="0.00" departDelay="0.00" arrival="84.00" arrivalLane="D3E3_1" arrivalPos="72.80" arrivalSpeed="13.90" duration="51.00" routeLength="368.70" waitingTime="5.70" waitingCount="1" stopTime="0.00" timeLoss="21.80" rerouteNo="0" devices="tripinfo_flow1.11" vType="vtypeauto@flow1.11" speedFactor="1.01" vaporized=""/>
    <tripinfo id="flow1.7" depart="21.00" departLane="A3B3_0" departPos="4.10" departSpeed="0.00" departDelay="0.00" arrival="84.10" arrivalLane="D3E3_0" arrivalPos="72.80" arrivalSpeed="13.88" duration="63.10" routeLength="368.70" waitingTime="18.20" waitingCount="2" stopTime="0.00" timeLoss="36.12" rerouteNo="0" devices="tripinfo_flow1.7" vType="vtypeauto@flow1.7" speedFactor="1.01" vaporized=""/>
    <tripinfo id="flow1.12" depart="36.00" departLane="A3B3_0" departPos="4.10" departSpeed="0.00" departDelay="0.00" arrival="84.40" arrivalLane="D3E3_2" arrivalPos="72.80" arrivalSpeed="15.28" duration="48.40" routeLength="368.70" waitingTime="8.40" waitingCount="1" stopTime="0.00" timeLoss="24.26" rerouteNo="0" devices="tripinfo_flow1.12" vType="vtypeauto" speedFactor="1.10" vaporized=""/>
    <tripinfo id="flow1.9" depart="27.00" departLane="A3B3_0" departPos="4.10" departSpeed="0.00" departDelay="0.00" arrival="85.20" arrivalLane="D3E3_0" arrivalPos="72.80" arrivalSpeed="13.94" duration="58.20" routeLength="368.70" waitingTime="7.80" waitingCount="1" stopTime="0.00" timeLoss="29.68" rerouteNo="0" devices="tripinfo_flow1.9" vType="vtypeauto@flow1.9" speedFactor="1.01" vaporized=""/>
    <tripinfo id="flow1.14" depart="42.00" departLane="A3B3_0" departPos="4.10" departSpeed="0.00" departDelay="0.00" arrival="85.20" arrivalLane="D3E3_1" arrivalPos="72.80" arrivalSpeed="13.89" duration="43.20" routeLength="368.70" waitingTime="2.50" waitingCount="1" stopTime="0.00" timeLoss="19.05" rerouteNo="0" devices="tripinfo_flow1.14" vType="vtypeauto@flow1.14" speedFactor="1.01" vaporized=""/>
    <tripinfo id="flow1.13" depart="39.00" departLane="A3B3_0" departPos="4.10" departSpeed="0.00" departDelay="0.00" arrival="85.80" arrivalLane="D3E3_2" arrivalPos="72.80" arrivalSpeed="14.80" duration="46.80" routeLength="368.70" waitingTime="5.70" waitingCount="1" stopTime="0.00" timeLoss="21.94" rerouteNo="0" devices="tripinfo_flow1.13" vType="vtypeauto" speedFactor="1.07" vaporized=""/>
    <tripinfo id="flow1.16" depart="48.00" departLane="A3B3_0" departPos="4.10" departSpeed="0.00" departDelay="0.00" arrival="86.60" arrivalLane="D3E3_1" arrivalPos="72.80" arrivalSpeed="14.88" duration="38.60" routeLength="368.70" waitingTime="0.00" waitingCount="0" stopTime="0.00" timeLoss="13.89" rerouteNo="0" devices="tripinfo_flow1.16" vType="vtypeauto" speedFactor="1.08" vaporized=""/>
    <tripinfo id="flow1.15" depart="45.00" departLane="A3B3_0" departPos="4.10" departSpeed="0.00" departDelay="0.00" arrival="86.70" arrivalLane="D3E3_0" arrivalPos="72.80" arrivalSpeed="13.93" duration="41.70" routeLength="368.70" waitingTime="0.00" waitingCount="0" stopTime="0.00" timeLoss="15.22" rerouteNo="0" devices="tripinfo_flow1.15" vType="vtypeauto" speedFactor="1.00" vaporized=""/>
    <tripinfo id="flow9.9" depart="27.00" departLane="A2B2_0" departPos="4.10" departSpeed="0.00" departDelay="0.00" arrival="87.40" arrivalLane="D2E2_1" arrivalPos="72.80" arrivalSpeed="15.14" duration="60.40" routeLength="368.70" waitingTime="22.10" waitingCount="2" stopTime="0.00" timeLoss="36.14" rerouteNo="0" devices="tripinfo_flow9.9" vType="vtypeauto" speedFactor="1.10" vaporized=""/>
    <tripinfo id="flow9.8" depart="24.00" departLane="A2B2_0" departPos="4.10" departSpeed="0.00" departDelay="0.00" arrival="87.70" arrivalLane="D2E2_0" arrivalPos="72.80" arrivalSpeed="14.18" duration="63.70" routeLength="368.70" waitingTime="25.00" waitingCount="2" stopTime="0.00" timeLoss="37.70" rerouteNo="0" devices="tripinfo_flow9.8" vType="vtypeauto" speedFactor="1.02" vaporized=""/>
    <tripinfo id="flow9.11" depart="33.00" departLane="A2B2_0" departPos="4.10" departSpeed="0.00" departDelay="0.00" arrival="89.30" arrivalLane="D2E2_2" arrivalPos="72.80" arrivalSpeed="1.06" duration="56.30" routeLength="368.70" waitingTime="19.30" waitingCount="1" stopTime="0.00" timeLoss="31.52" rerouteNo="0" devices="tripinfo_flow9.11" vType="vtypeauto" speedFactor="1.07" vaporized=""/>
    <tripinfo id="flow9.13" depart="39.00" departLane="A2B2_0" departPos="4.10" departSpeed="0.00" departDelay="0.00" arrival="89.30" arrivalLane="D2E2_1" arrivalPos="72.80" arrivalSpeed="13.24" duration="50.30" routeLength="368.70" waitingTime="9.80" waitingCount="1" stopTime="0.00" timeLoss="22.37" rerouteNo="0" devices="tripinfo_flow9.13" vType="vtypeauto" speedFactor="0.95" vaporized=""/>
    <tripinfo id="flow9.10" depart="30.00" departLane="A2B2_0" departPos="4.10" departSpeed="0.00" departDelay="0.00" arrival="89.40" arrivalLane="D2E2_0" arrivalPos="72.80" arrivalSpeed="13.29" duration="59.40" routeLength="368.70" waitingTime="12.20" waitingCount="1" stopTime="0.00" timeLoss="31.67" rerouteNo="0" devices="tripinfo_flow9.10" vType="vtypeauto" speedFactor="0.96" vaporized=""/>
    <tripinfo id="flow9.12" depart="36.00" departLane="A2B2_0" departPos="4.10" departSpeed="0.00" departDelay="0.00" arrival="92.70" arrivalLane="D2E2_2" arrivalPos="72.80" arrivalSpeed="1.19" duration="56.70" routeLength="368.70" waitingTime="13.40" waitingCount="1" stopTime="0.00" timeLoss="30.38" rerouteNo="0" devices="tripinfo_flow9.12" vType="vtypeauto" speedFactor="1.01" vaporized=""/>
    <tripinfo id="flow4.5" depart="15.10" departLane="C0C1_0" departPos="4.10" departSpeed="0.00" departDelay="0.10" arrival="94.80" arrivalLane="C3C4_0" arrivalPos="72.80" arrivalSpeed="13.89" duration="79.70" routeLength="368.70" waitingTime="32.10" waitingCount="3" stopTime="0.00" timeLoss="53.19" rerouteNo="0" devices="tripinfo_flow4.5" vType="vtypeauto" speedFactor="1.00" vaporized=""/>
    <tripinfo id="flow9.15" depart="45.00" departLane="A2B2_0" departPos="4.10" departSpeed="0.00" departDelay="0.00" arrival="103.30" arrivalLane="D2E2_1" arrivalPos="72.80" arrivalSpeed="15.82" duration="58.30" routeLength="368.70" waitingTime="16.60" waitingCount="2" stopTime="0.00" timeLoss="35.01" rerouteNo="0" devices="tripinfo_flow9.15" vType="vtypeauto" speedFactor="1.14" vaporized=""/>
    <tripinfo id="flow9.14" depart="42.00" departLane="A2B2_0" departPos="4.10" departSpeed="0.00" departDelay="0.00" arrival="103.60" arrivalLane="D2E2_0" arrivalPos="72.80" arrivalSpeed="14.42" duration="61.60" routeLength="368.70" waitingTime="19.20" waitingCount="2" stopTime="0.00" timeLoss="36.06" rerouteNo="0" devices="tripinfo_flow9.14" vType="vtypeauto" speedFactor="1.04" vaporized=""/>
    <tripinfo id="flow9.16" depart="48.00" departLane="A2B2_0" departPos="4.10" departSpeed="0.00" departDelay="0.00" arrival="105.50" arrivalLane="D2E2_0" arrivalPos="72.80" arrivalSpeed="13.03" duration="57.50" routeLength="368.70" waitingTime="18.80" waitingCount="1" stopTime="0.00" timeLoss="29.19" rerouteNo="0" devices="tripinfo_flow9.16" vType="vtypeauto" speedFactor="0.94" vaporized=""/>
    <tripinfo id="flow2.0" depart="0.00" departLane="A0A1_0" departPos="4.10" departSpeed="0.00" departDelay="0.00" arrival="109.40" arrivalLane="C3D3_0" arrivalPos="72.80" arrivalSpeed="13.94" duration="109.40" routeLength="512.81" waitingTime="44.70" waitingCount="4" stopTime="0.00" timeLoss="69.53" rerouteNo="0" devices="tripinfo_flow2.0" vType="vtypeauto" speedFactor="1.01" vaporized=""/>
    <tripinfo id="flow2.1" depart="3.00" departLane="A0A1_0" departPos="4.10" departSpeed="0.00" departDelay="0.00" arrival="111.10" arrivalLane="C3D3_0" arrivalPos="72.80" arrivalSpeed="14.44" duration="108.10" routeLength="512.81" waitingTime="30.80" waitingCount="4" stopTime="0.00" timeLoss="69.57" rerouteNo="0" devices="tripinfo_flow2.1" vType="vtypeauto" speedFactor="1.05" vaporized=""/>
    <tripinfo id="flow2.2" depart="6.00" departLane="A0A1_0" departPos="4.10" departSpeed="0.00" departDelay="0.00" arrival="113.60" arrivalLane="C3D3_0" arrivalPos="72.80" arrivalSpeed="13.49" duration="107.60" routeLength="512.81" waitingTime="28.70" waitingCount="2" stopTime="0.00" timeLoss="66.25" rerouteNo="0" devices="tripinfo_flow2.2" vType="vtypeauto" speedFactor="0.97" vaporized=""/>
    <tripinfo id="flow2.4" depart="12.00" departLane="A0A1_0" departPos="4.10" departSpeed="0.00" departDelay="0.00" arrival="115.20" arrivalLane="C3D3_0" arrivalPos="72.80" arrivalSpeed="15.15" duration="103.20" routeLength="512.81" waitingTime="26.80" waitingCount="1" stopTime="0.00" timeLoss="66.22" rerouteNo="0" devices="tripinfo_flow2.4" vType="vtypeauto" speedFactor="1.09" vaporized=""/>
    <tripinfo id="flow6.0" depart="0.00" departLane="D4D3_0" departPos="4.10" departSpeed="0.00" departDelay="0.00" arrival="115.70" arrivalLane="D1D0_0" arrivalPos="72.80" arrivalSpeed="14.48" duration="115.70" routeLength="368.70" waitingTime="71.80" waitingCount="3" stopTime="0.00" timeLoss="90.28" rerouteNo="0" devices="tripinfo_flow6.0" vType="vtypeauto" speedFactor="1.05" vaporized=""/>
    <tripinfo id="flow6.2" depart="11.20" departLane="D4D3_0" departPos="4.10" departSpeed="0.00" departDelay="5.20" arrival="116.10" arrivalLane="D1D0_1" arrivalPos="72.80" arrivalSpeed="12.65" duration="104.90" routeLength="368.70" waitingTime="63.60" waitingCount="2" stopTime="0.00" timeLoss="75.97" rerouteNo="0" devices="tripinfo_flow6.2" vType="vtypeauto" speedFactor="0.92" vaporized=""/>
    <tripinfo id="flow6.1" depart="5.60" departLane="D4D3_0" departPos="4.10" departSpeed="0.00" departDelay="2.60" arrival="116.50" arrivalLane="D1D0_0" arrivalPos="72.80" arrivalSpeed="12.15" duration="110.90" routeLength="368.70" waitingTime="65.70" waitingCount="3" stopTime="0.00" timeLoss="80.62" rerouteNo="0" devices="tripinfo_flow6.1" vType="vtypeauto" speedFactor="0.88" vaporized=""/>
    <tripinfo id="flow6.4" depart="22.50" departLane="D4D3_0" departPos="4.10" departSpeed="0.00" departDelay="10.50" arrival="117.60" arrivalLane="D1D0_2" arrivalPos="72.80" arrivalSpeed="13.74" duration="95.10" routeLength="368.70" waitingTime="46.40" waitingCount="2" stopTime="0.00" timeLoss="68.46" rerouteNo="0" devices="tripinfo_flow6.4" vType="vtypeauto" speedFactor="1.00" vaporized=""/>
    <tripinfo id="flow2.3" depart="9.00" departLane="A0A1_0" departPos="4.10" departSpeed="0.00" departDelay="0.00" arrival="117.70" arrivalLane="C3D3_0" arrivalPos="72.80" arrivalSpeed="13.85" duration="108.70" routeLength="512.81" waitingTime="25.10" waitingCount="1" stopTime="0.00" timeLoss="68.57" rerouteNo="0" devices="tripinfo_flow2.3" vType="vtypeauto" speedFactor="1.01" vaporized=""/>
    <tripinfo id="flow6.3" depart="16.90" departLane="D4D3_0" departPos="4.10" departSpeed="0.00" departDelay="7.90" arrival="117.80" arrivalLane="D1D0_1" arrivalPos="72.80" arrivalSpeed="13.96" duration="100.90" routeLength="368.70" waitingTime="52.00" waitingCount="2" stopTime="0.00" timeLoss="73.91" rerouteNo="0" devices="tripinfo_flow6.3" vType="vtypeauto@flow6.3" speedFactor="1.01" vaporized=""/>
    <tripinfo id="flow6.5" depart="28.00" departLane="D4D3_0" departPos="4.10" departSpeed="0.00" departDelay="13.00" arrival="118.90" arrivalLane="D1D0_1" arrivalPos="72.80" arrivalSpeed="14.00" duration="90.90" routeLength="368.70" waitingTime="39.10" waitingCount="2" stopTime="0.00" timeLoss="62.38" rerouteNo="0" devices="tripinfo_flow6.5" vType="vtypeauto@flow6.5" speedFactor="1.01" vaporized=""/>
    <tripinfo id="flow6.6" depart="33.70" departLane="D4D3_0" departPos="4.10" departSpeed="0.00" departDelay="15.70" arrival="119.30" arrivalLane="D1D0_2" arrivalPos="72.80" arrivalSpeed="12.56" duration="85.60" routeLength="368.70" waitingTime="37.10" waitingCount="1" stopTime="0.00" timeLoss="56.33" rerouteNo="0" devices="tripinfo_flow6.6" vType="vtypeauto" speedFactor="0.91" vaporized=""/>
    <tripinfo id="flow2.5" depart="15.00" departLane="A0A1_0" departPos="4.10" departSpeed="0.00" departDelay="0.00" arrival="119.80" arrivalLane="C3D3_0" arrivalPos="72.80" arrivalSpeed="14.10" duration="104.80" routeLength="512.81" waitingTime="27.70" waitingCount="1" stopTime="0.00" timeLoss="65.12" rerouteNo="0" devices="tripinfo_flow2.5" vType="vtypeauto" speedFactor="1.02" vaporized=""/>
    <tripinfo id="flow6.8" depart="44.80" departLane="D4D3_0" departPos="4.10" departSpeed="0.00" departDelay="20.80" arrival="120.10" arrivalLane="D1D0_1" arrivalPos="72.80" arrivalSpeed="13.91" duration="75.30" routeLength="368.70" waitingTime="34.00" waitingCount="1" stopTime="0.00" timeLoss="48.77" rerouteNo="0" devices="tripinfo_flow6.8" vType="vtypeauto@flow6.8" speedFactor="1.01" vaporized=""/>
    <tripinfo id="flow6.7" depart="39.20" departLane="D4D3_0" departPos="4.10" departSpeed="0.00" departDelay="18.20" arrival="120.80" arrivalLane="D1D0_2" arrivalPos="72.80" arrivalSpeed="14.30" duration="81.60" routeLength="368.70" waitingTime="35.80" waitingCount="1" stopTime="0.00" timeLoss="55.88" rerouteNo="0" devices="tripinfo_flow6.7" vType="vtypeauto" speedFactor="1.03" vaporized=""/>
    <tripinfo id="flow6.9" depart="50.40" departLane="D4D3_0" departPos="4.10" departSpeed="0.00" departDelay="23.40" arrival="121.20" arrivalLane="D1D0_1" arrivalPos="72.80" arrivalSpeed="13.96" duration="70.80" routeLength="368.70" waitingTime="29.50" waitingCount="1" stopTime="0.00" timeLoss="44.44" rerouteNo="0" devices="tripinfo_flow6.9" vType="vtypeauto@flow6.9" speedFactor="1.01" vaporized=""/>
    <tripinfo id="flow2.6" depart="18.00" departLane="A0A1_0" departPos="4.10" departSpeed="0.00" departDelay="0.00" arrival="122.00" arrivalLane="C3D3_0" arrivalPos="72.80" arrivalSpeed="14.09" duration="104.00" routeLength="512.81" waitingTime="33.90" waitingCount="3" stopTime="0.00" timeLoss="64.32" rerouteNo="0" devices="tripinfo_flow2.6" vType="vtypeauto" speedFactor="1.02" vaporized=""/>
    <tripinfo id="flow6.10" depart="56.00" departLane="D4D3_0" departPos="4.10" departSpeed="0.00" departDelay="26.00" arrival="122.30" arrivalLane="D1D0_2" arrivalPos="72.80" arrivalSpeed="13.96" duration="66.30" routeLength="368.70" waitingTime="24.10" waitingCount="1" stopTime="0.00" timeLoss="40.10" rerouteNo="0" devices="tripinfo_flow6.10" vType="vtypeauto" speedFactor="1.01" vaporized=""/>
    <tripinfo id="flow0.0" depart="0.00" departLane="B4B3_0" departPos="4.10" departSpeed="0.00" departDelay="0.00" arrival="123.30" arrivalLane="B3A3_1" arrivalPos="72.80" arrivalSpeed="14.68" duration="123.30" routeLength="560.63" waitingTime="51.80" waitingCount="2" stopTime="0.00" timeLoss="83.51" rerouteNo="0" devices="tripinfo_flow0.0" vType="vtypeauto" speedFactor="1.06" vaporized=""/>
    <tripinfo id="flow2.7" depart="21.00" departLane="A0A1_0" departPos="4.10" departSpeed="0.00" departDelay="0.00" arrival="124.60" arrivalLane="C3D3_0" arrivalPos="72.80" arrivalSpeed="13.00" duration="103.60" routeLength="512.81" waitingTime="28.00" waitingCount="5" stopTime="0.00" timeLoss="60.64" rerouteNo="0" devices="tripinfo_flow2.7" vType="vtypeauto" speedFactor="0.94" vaporized=""/>
    <tripinfo id="flow2.8" depart="24.00" departLane="A0A1_0" departPos="4.10" departSpeed="0.00" departDelay="0.00" arrival="126.40" arrivalLane="C3D3_0" arrivalPos="72.80" arrivalSpeed="14.03" duration="102.40" routeLength="512.81" waitingTime="30.10" waitingCount="1" stopTime="0.00" timeLoss="62.67" rerouteNo="0" devices="tripinfo_flow2.8" vType="vtypeauto" speedFactor="1.02" vaporized=""/>
    <tripinfo id="flow0.8" depart="24.00" departLane="B4B3_0" departPos="4.10" departSpeed="0.00" departDelay="0.00" arrival="128.80" arrivalLane="B3A3_2" arrivalPos="72.80" arrivalSpeed="14.28" duration="104.80" routeLength="560.63" waitingTime="32.30" waitingCount="5" stopTime="0.00" timeLoss="63.96" rerouteNo="0" devices="tripinfo_flow0.8" vType="vtypeauto" speedFactor="1.03" vaporized=""/>
    <tripinfo id="flow2.10" depart="30.00" departLane="A0A1_0" departPos="4.10" departSpeed="0.00" departDelay="0.00" arrival="128.80" arrivalLane="C3D3_0" arrivalPos="72.80" arrivalSpeed="13.42" duration="98.80" routeLength="512.81" waitingTime="14.20" waitingCount="3" stopTime="0.00" timeLoss="57.12" rerouteNo="0" devices="tripinfo_flow2.10" vType="vtypeauto" speedFactor="0.97" vaporized=""/>
    <tripinfo id="flow6.12" depart="67.10" departLane="D4D3_0" departPos="4.10" departSpeed="0.00" departDelay="31.10" arrival="129.10" arrivalLane="D1D0_2" arrivalPos="72.80" arrivalSpeed="14.26" duration="62.00" routeLength="368.70" waitingTime="17.70" waitingCount="2" stopTime="0.00" timeLoss="36.22" rerouteNo="0" devices="tripinfo_flow6.12" vType="vtypeauto" speedFactor="1.03" vaporized=""/>
    <tripinfo id="flow0.9" depart="27.00" departLane="B4B3_0" departPos="4.10" departSpeed="0.00" departDelay="0.00" arrival="130.30" arrivalLane="B3A3_2" arrivalPos="72.80" arrivalSpeed="14.06" duration="103.30" routeLength="560.63" waitingTime="28.00" waitingCount="9" stopTime="0.00" timeLoss="61.74" rerouteNo="0" devices="tripinfo_flow0.9" vType="vtypeauto" speedFactor="1.02" vaporized=""/>
    <tripinfo id="flow6.11" depart="61.50" departLane="D4D3_0" departPos="4.10" departSpeed="0.00" departDelay="28.50" arrival="130.30" arrivalLane="D1D0_0" arrivalPos="72.80" arrivalSpeed="16.26" duration="68.80" routeLength="368.70" waitingTime="23.50" waitingCount="2" stopTime="0.00" timeLoss="46.18" rerouteNo="0" devices="tripinfo_flow6.11" vType="vtypeauto" speedFactor="1.18" vaporized=""/>
    <tripinfo id="flow0.10" depart="30.00" departLane="B4B3_0" departPos="4.10" departSpeed="0.00" departDelay="0.00" arrival="131.80" arrivalLane="B3A3_2" arrivalPos="72.80" arrivalSpeed="14.71" duration="101.80" routeLength="560.63" waitingTime="19.60" waitingCount="6" stopTime="0.00" timeLoss="62.13" rerouteNo="0" devices="tripinfo_flow0.10" vType="vtypeauto" speedFactor="1.06" vaporized=""/>
    <tripinfo id="flow6.14" depart="78.30" departLane="D4D3_0" departPos="4.10" departSpeed="0.00" departDelay="36.30" arrival="131.80" arrivalLane="D1D0_2" arrivalPos="72.80" arrivalSpeed="12.26" duration="53.50" routeLength="368.70" waitingTime="7.30" waitingCount="1" stopTime="0.00" timeLoss="23.57" rerouteNo="0" devices="tripinfo_flow6.14" vType="vtypeauto" speedFactor="0.89" vaporized=""/>
    <tripinfo id="flow6.13" depart="72.60" departLane="D4D3_0" departPos="4.10" departSpeed="0.00" departDelay="33.60" arrival="131.90" arrivalLane="D1D0_1" arrivalPos="72.80" arrivalSpeed="15.53" duration="59.30" routeLength="368.70" waitingTime="8.20" waitingCount="1" stopTime="0.00" timeLoss="35.54" rerouteNo="0" devices="tripinfo_flow6.13" vType="vtypeauto" speedFactor="1.12" vaporized=""/>
    <tripinfo id="flow2.9" depart="27.00" departLane="A0A1_0" departPos="4.10" departSpeed="0.00" departDelay="0.00" arrival="133.10" arrivalLane="C3D3_0" arrivalPos="72.80" arrivalSpeed="11.49" duration="106.10" routeLength="512.81" waitingTime="26.80" waitingCount="6" stopTime="0.00" timeLoss="57.67" rerouteNo="0" devices="tripinfo_flow2.9" vType="vtypeauto" speedFactor="0.83" vaporized=""/>
    <tripinfo id="flow0.1" depart="3.00" departLane="B4B3_0" departPos="4.10" departSpeed="0.00" departDelay="0.00" arrival="133.30" arrivalLane="B3A3_2" arrivalPos="72.80" arrivalSpeed="15.13" duration="130.30" routeLength="560.63" waitingTime="50.70" waitingCount="6" stopTime="0.00" timeLoss="91.56" rerouteNo="0" devices="tripinfo_flow0.1" vType="vtypeauto" speedFactor="1.09" vaporized=""/>
    <tripinfo id="flow6.15" depart="83.80" departLane="D4D3_0" departPos="4.10" departSpeed="0.00" departDelay="38.80" arrival="133.30" arrivalLane="D1D0_1" arrivalPos="72.80" arrivalSpeed="16.37" duration="49.50" routeLength="368.70" waitingTime="6.50" waitingCount="2" stopTime="0.00" timeLoss="26.98" rerouteNo="0" devices="tripinfo_flow6.15" vType="vtypeauto" speedFactor="1.18" vaporized=""/>
    <tripinfo id="flow6.16" depart="89.40" departLane="D4D3_0" departPos="4.10" departSpeed="0.00" departDelay="41.40" arrival="133.40" arrivalLane="D1D0_2" arrivalPos="72.80" arrivalSpeed="13.84" duration="44.00" routeLength="368.70" waitingTime="0.00" waitingCount="0" stopTime="0.00" timeLoss="17.49" rerouteNo="0" devices="tripinfo_flow6.16" vType="vtypeauto" speedFactor="1.00" vaporized=""/>