<?xml version="1.0" encoding="UTF-8"?>

<!-- generated on 2024-10-29 10:56:47 by Eclipse SUMO sumo Version 1.20.0
<configuration xmlns:xsi="http://www.w3.org/2001/XMLSchema-instance" xsi:noNamespaceSchemaLocation="http://sumo.dlr.de/xsd/sumoConfiguration.xsd">

    <input>
        <net-file value="./sim_cfg_grid_3_lanes/grid.net.xml"/>
        <route-files value="./sim_cfg_grid_3_lanes/10x0.16.rou.xml"/>
    </input>

    <output>
        <tripinfo-output value="./sim_cfg_grid_3_lanes/tripinfo-platooning_0.192.xml"/>
    </output>

    <time>
        <begin value="0"/>
        <end value="500"/>
        <step-length value="0.1"/>
    </time>

    <traci_server>
        <remote-port value="49378"/>
    </traci_server>

    <gui_only>
        <gui-settings-file value="./sim_cfg_grid_3_lanes/gui_settings.xml"/>
    </gui_only>

</configuration>
-->

<tripinfos xmlns:xsi="http://www.w3.org/2001/XMLSchema-instance" xsi:noNamespaceSchemaLocation="http://sumo.dlr.de/xsd/tripinfo_file.xsd">
    <tripinfo id="flow6.1" depart="6.00" departLane="D4D3_0" departPos="4.10" departSpeed="0.00" departDelay="0.00" arrival="43.30" arrivalLane="D1D0_1" arrivalPos="72.80" arrivalSpeed="12.14" duration="37.30" routeLength="368.70" waitingTime="0.00" waitingCount="0" stopTime="0.00" timeLoss="7.08" rerouteNo="0" devices="tripinfo_flow6.1" vType="vtypeauto" speedFactor="0.88" vaporized=""/>
    <tripinfo id="flow6.0" depart="0.00" departLane="D4D3_0" departPos="4.10" departSpeed="0.00" departDelay="0.00" arrival="43.60" arrivalLane="D1D0_0" arrivalPos="72.80" arrivalSpeed="14.51" duration="43.60" routeLength="368.70" waitingTime="6.60" waitingCount="1" stopTime="0.00" timeLoss="18.22" rerouteNo="0" devices="tripinfo_flow6.0" vType="vtypeauto" speedFactor="1.05" vaporized=""/>
    <tripinfo id="flow6.2" depart="12.00" departLane="D4D3_0" departPos="4.10" departSpeed="0.00" departDelay="0.00" arrival="44.90" arrivalLane="D1D0_1" arrivalPos="72.80" arrivalSpeed="12.63" duration="32.90" routeLength="368.70" waitingTime="0.00" waitingCount="0" stopTime="0.00" timeLoss="3.96" rerouteNo="0" devices="tripinfo_flow6.2" vType="vtypeauto" speedFactor="0.92" vaporized=""/>
    <tripinfo id="flow6.3" depart="18.00" departLane="D4D3_0" departPos="4.10" departSpeed="0.00" departDelay="0.00" arrival="51.30" arrivalLane="D1D0_1" arrivalPos="72.80" arrivalSpeed="13.40" duration="33.30" routeLength="368.70" waitingTime="0.00" waitingCount="0" stopTime="0.00" timeLoss="5.94" rerouteNo="0" devices="tripinfo_flow6.3" vType="vtypeauto" speedFactor="0.97" vaporized=""/>
    <tripinfo id="flow6.4" depart="24.00" departLane="D4D3_0" departPos="4.10" departSpeed="0.00" departDelay="0.00" arrival="54.50" arrivalLane="D1D0_0" arrivalPos="72.80" arrivalSpeed="13.74" duration="30.50" routeLength="368.70" waitingTime="0.00" waitingCount="0" stopTime="0.00" timeLoss="3.87" rerouteNo="0" devices="tripinfo_flow6.4" vType="vtypeauto" speedFactor="1.00" vaporized=""/>
    <tripinfo id="flow4.0" depart="0.40" departLane="C0C1_0" departPos="4.10" departSpeed="0.00" departDelay="0.40" arrival="58.50" arrivalLane="C3C4_0" arrivalPos="72.80" arrivalSpeed="14.22" duration="58.10" routeLength="368.70" waitingTime="15.50" waitingCount="3" stopTime="0.00" timeLoss="32.30" rerouteNo="0" devices="tripinfo_flow4.0" vType="vtypeauto" speedFactor="1.03" vaporized=""/>
    <tripinfo id="flow4.1" depart="6.30" departLane="C0C1_0" departPos="4.10" departSpeed="0.00" departDelay="0.30" arrival="58.70" arrivalLane="C3C4_0" arrivalPos="72.80" arrivalSpeed="13.68" duration="52.40" routeLength="368.70" waitingTime="9.00" waitingCount="2" stopTime="0.00" timeLoss="25.62" rerouteNo="0" devices="tripinfo_flow4.1" vType="vtypeauto" speedFactor="0.99" vaporized=""/>
    <tripinfo id="flow4.2" depart="12.30" departLane="C0C1_0" departPos="4.10" departSpeed="0.00" departDelay="0.30" arrival="61.10" arrivalLane="C3C4_0" arrivalPos="72.80" arrivalSpeed="11.40" duration="48.80" routeLength="368.70" waitingTime="0.00" waitingCount="0" stopTime="0.00" timeLoss="16.59" rerouteNo="0" devices="tripinfo_flow4.2" vType="vtypeauto" speedFactor="0.83" vaporized=""/>
    <tripinfo id="flow9.1" depart="6.00" departLane="A2B2_0" departPos="4.10" departSpeed="0.00" departDelay="0.00" arrival="69.50" arrivalLane="D2E2_1" arrivalPos="72.80" arrivalSpeed="16.03" duration="63.50" routeLength="368.70" waitingTime="26.00" waitingCount="2" stopTime="0.00" timeLoss="40.53" rerouteNo="0" devices="tripinfo_flow9.1" vType="vtypeauto" speedFactor="1.16" vaporized=""/>
    <tripinfo id="flow9.0" depart="0.00" departLane="A2B2_0" departPos="4.10" departSpeed="0.00" departDelay="0.00" arrival="70.40" arrivalLane="D2E2_0" arrivalPos="72.80" arrivalSpeed="11.79" duration="70.40" routeLength="368.70" waitingTime="29.00" waitingCount="2" stopTime="0.00" timeLoss="39.38" rerouteNo="0" devices="tripinfo_flow9.0" vType="vtypeauto" speedFactor="0.86" vaporized=""/>
    <tripinfo id="flow9.3" depart="18.00" departLane="A2B2_0" departPos="4.10" departSpeed="0.00" departDelay="0.00" arrival="71.10" arrivalLane="D2E2_2" arrivalPos="72.80" arrivalSpeed="6.26" duration="53.10" routeLength="368.70" waitingTime="9.80" waitingCount="2" stopTime="0.00" timeLoss="23.61" rerouteNo="0" devices="tripinfo_flow9.3" vType="vtypeauto" speedFactor="0.90" vaporized=""/>
    <tripinfo id="flow9.2" depart="12.00" departLane="A2B2_0" departPos="4.10" departSpeed="0.00" departDelay="0.00" arrival="72.00" arrivalLane="D2E2_0" arrivalPos="72.80" arrivalSpeed="12.90" duration="60.00" routeLength="368.70" waitingTime="11.40" waitingCount="3" stopTime="0.00" timeLoss="31.42" rerouteNo="0" devices="tripinfo_flow9.2" vType="vtypeauto" speedFactor="0.93" vaporized=""/>
    <tripinfo id="flow9.4" depart="24.00" departLane="A2B2_0" departPos="4.10" departSpeed="0.00" departDelay="0.00" arrival="72.10" arrivalLane="D2E2_1" arrivalPos="72.80" arrivalSpeed="11.71" duration="48.10" routeLength="368.70" waitingTime="1.30" waitingCount="1" stopTime="0.00" timeLoss="16.82" rerouteNo="0" devices="tripinfo_flow9.4" vType="vtypeauto" speedFactor="0.85" vaporized=""/>
    <tripinfo id="flow6.5" depart="30.00" departLane="D4D3_0" departPos="4.10" departSpeed="0.00" departDelay="0.00" arrival="78.10" arrivalLane="D1D0_1" arrivalPos="72.80" arrivalSpeed="12.46" duration="48.10" routeLength="368.70" waitingTime="10.80" waitingCount="1" stopTime="0.00" timeLoss="18.50" rerouteNo="0" devices="tripinfo_flow6.5" vType="vtypeauto" speedFactor="0.90" vaporized=""/>
    <tripinfo id="flow6.6" depart="36.00" departLane="D4D3_0" departPos="4.10" departSpeed="0.00" departDelay="0.00" arrival="78.10" arrivalLane="D1D0_2" arrivalPos="72.80" arrivalSpeed="12.57" duration="42.10" routeLength="368.70" waitingTime="4.60" waitingCount="1" stopTime="0.00" timeLoss="12.81" rerouteNo="0" devices="tripinfo_flow6.6" vType="vtypeauto" speedFactor="0.91" vaporized=""/>
    <tripinfo id="flow2.0" depart="0.00" departLane="A0A1_0" departPos="4.10" departSpeed="0.00" departDelay="0.00" arrival="78.40" arrivalLane="C3D3_0" arrivalPos="72.80" arrivalSpeed="14.00" duration="78.40" routeLength="512.81" waitingTime="16.50" waitingCount="2" stopTime="0.00" timeLoss="38.44" rerouteNo="0" devices="tripinfo_flow2.0" vType="vtypeauto" speedFactor="1.01" vaporized=""/>
    <tripinfo id="flow1.3" depart="18.00" departLane="A3B3_0" departPos="4.10" departSpeed="0.00" departDelay="0.00" arrival="79.20" arrivalLane="D3E3_2" arrivalPos="72.80" arrivalSpeed="16.03" duration="61.20" routeLength="368.70" waitingTime="17.70" waitingCount="3" stopTime="0.00" timeLoss="38.20" rerouteNo="0" devices="tripinfo_flow1.3" vType="vtypeauto" speedFactor="1.15" vaporized=""/>
    <tripinfo id="flow1.1" depart="6.00" departLane="A3B3_0" departPos="4.10" departSpeed="0.00" departDelay="0.00" arrival="79.80" arrivalLane="D3E3_1" arrivalPos="72.80" arrivalSpeed="14.25" duration="73.80" routeLength="368.70" waitingTime="34.70" waitingCount="2" stopTime="0.00" timeLoss="47.91" rerouteNo="0" devices="tripinfo_flow1.1" vType="vtypeauto" speedFactor="1.03" vaporized=""/>
    <tripinfo id="flow1.0" depart="0.00" departLane="A3B3_0" departPos="4.10" departSpeed="0.00" departDelay="0.00" arrival="80.00" arrivalLane="D3E3_0" arrivalPos="72.80" arrivalSpeed="13.01" duration="80.00" routeLength="368.70" waitingTime="40.10" waitingCount="2" stopTime="0.00" timeLoss="51.63" rerouteNo="0" devices="tripinfo_flow1.0" vType="vtypeauto" speedFactor="0.94" vaporized=""/>
    <tripinfo id="flow2.1" depart="6.00" departLane="A0A1_0" departPos="4.10" departSpeed="0.00" departDelay="0.00" arrival="80.00" arrivalLane="C3D3_0" arrivalPos="72.80" arrivalSpeed="14.53" duration="74.00" routeLength="512.81" waitingTime="6.20" waitingCount="2" stopTime="0.00" timeLoss="35.51" rerouteNo="0" devices="tripinfo_flow2.1" vType="vtypeauto" speedFactor="1.05" vaporized=""/>
    <tripinfo id="flow1.6" depart="36.00" departLane="A3B3_0" departPos="4.10" departSpeed="0.00" departDelay="0.00" arrival="80.70" arrivalLane="D3E3_2" arrivalPos="72.80" arrivalSpeed="15.47" duration="44.70" routeLength="368.70" waitingTime="5.50" waitingCount="1" stopTime="0.00" timeLoss="20.96" rerouteNo="0" devices="tripinfo_flow1.6" vType="vtypeauto" speedFactor="1.12" vaporized=""/>
    <tripinfo id="flow1.2" depart="12.00" departLane="A3B3_0" departPos="4.10" departSpeed="0.00" departDelay="0.00" arrival="81.50" arrivalLane="D3E3_0" arrivalPos="72.80" arrivalSpeed="13.99" duration="69.50" routeLength="368.70" waitingTime="21.80" waitingCount="3" stopTime="0.00" timeLoss="43.16" rerouteNo="0" devices="tripinfo_flow1.2" vType="vtypeauto" speedFactor="1.01" vaporized=""/>
    <tripinfo id="flow1.4" depart="24.00" departLane="A3B3_0" departPos="4.10" departSpeed="0.00" departDelay="0.00" arrival="81.60" arrivalLane="D3E3_1" arrivalPos="72.80" arrivalSpeed="13.29" duration="57.60" routeLength="368.70" waitingTime="12.40" waitingCount="1" stopTime="0.00" timeLoss="29.81" rerouteNo="0" devices="tripinfo_flow1.4" vType="vtypeauto" speedFactor="0.96" vaporized=""/>
    <tripinfo id="flow2.2" depart="12.00" departLane="A0A1_0" departPos="4.10" departSpeed="0.00" departDelay="0.00" arrival="82.60" arrivalLane="C3D3_0" arrivalPos="72.80" arrivalSpeed="13.46" duration="70.60" routeLength="512.81" waitingTime="4.50" waitingCount="2" stopTime="0.00" timeLoss="29.22" rerouteNo="0" devices="tripinfo_flow2.2" vType="vtypeauto" speedFactor="0.97" vaporized=""/>
    <tripinfo id="flow1.5" depart="30.00" departLane="A3B3_0" departPos="4.10" departSpeed="0.00" departDelay="0.00" arrival="82.90" arrivalLane="D3E3_0" arrivalPos="72.80" arrivalSpeed="15.92" duration="52.90" routeLength="368.70" waitingTime="11.70" waitingCount="1" stopTime="0.00" timeLoss="30.16" rerouteNo="0" devices="tripinfo_flow1.5" vType="vtypeauto" speedFactor="1.17" vaporized=""/>
    <tripinfo id="flow1.8" depart="48.00" departLane="A3B3_0" departPos="4.10" departSpeed="0.00" departDelay="0.00" arrival="83.10" arrivalLane="D3E3_1" arrivalPos="72.80" arrivalSpeed="13.76" duration="35.10" routeLength="368.70" waitingTime="0.00" waitingCount="0" stopTime="0.00" timeLoss="8.47" rerouteNo="0" devices="tripinfo_flow1.8" vType="vtypeauto" speedFactor="1.00" vaporized=""/>
    <tripinfo id="flow1.7" depart="42.00" departLane="A3B3_0" departPos="4.10" departSpeed="0.00" departDelay="0.00" arrival="84.60" arrivalLane="D3E3_0" arrivalPos="72.80" arrivalSpeed="13.47" duration="42.60" routeLength="368.70" waitingTime="0.00" waitingCount="0" stopTime="0.00" timeLoss="15.25" rerouteNo="0" devices="tripinfo_flow1.7" vType="vtypeauto" speedFactor="0.97" vaporized=""/>
    <tripinfo id="flow2.3" depart="18.00" departLane="A0A1_0" departPos="4.10" departSpeed="0.00" departDelay="0.00" arrival="84.70" arrivalLane="C3D3_0" arrivalPos="72.80" arrivalSpeed="13.91" duration="66.70" routeLength="512.81" waitingTime="8.40" waitingCount="1" stopTime="0.00" timeLoss="26.60" rerouteNo="0" devices="tripinfo_flow2.3" vType="vtypeauto" speedFactor="1.01" vaporized=""/>
    <tripinfo id="flow0.0" depart="0.00" departLane="B4B3_0" departPos="4.10" departSpeed="0.00" departDelay="0.00" arrival="86.10" arrivalLane="B3A3_2" arrivalPos="72.80" arrivalSpeed="14.60" duration="86.10" routeLength="560.63" waitingTime="29.40" waitingCount="3" stopTime="0.00" timeLoss="46.29" rerouteNo="0" devices="tripinfo_flow0.0" vType="vtypeauto" speedFactor="1.06" vaporized=""/>
    <tripinfo id="flow2.4" depart="24.00" departLane="A0A1_0" departPos="4.10" departSpeed="0.00" departDelay="0.00" arrival="86.70" arrivalLane="C3D3_0" arrivalPos="72.80" arrivalSpeed="15.13" duration="62.70" routeLength="512.81" waitingTime="0.00" waitingCount="0" stopTime="0.00" timeLoss="25.87" rerouteNo="0" devices="tripinfo_flow2.4" vType="vtypeauto" speedFactor="1.09" vaporized=""/>
    <tripinfo id="flow0.1" depart="6.00" departLane="B4B3_0" departPos="4.10" departSpeed="0.00" departDelay="0.00" arrival="87.60" arrivalLane="B3A3_2" arrivalPos="72.80" arrivalSpeed="15.03" duration="81.60" routeLength="560.63" waitingTime="7.90" waitingCount="3" stopTime="0.00" timeLoss="42.91" rerouteNo="0" devices="tripinfo_flow0.1" vType="vtypeauto" speedFactor="1.09" vaporized=""/>
    <tripinfo id="flow2.5" depart="30.00" departLane="A0A1_0" departPos="4.10" departSpeed="0.00" departDelay="0.00" arrival="89.30" arrivalLane="C3D3_0" arrivalPos="72.80" arrivalSpeed="14.12" duration="59.30" routeLength="512.81" waitingTime="0.00" waitingCount="0" stopTime="0.00" timeLoss="19.67" rerouteNo="0" devices="tripinfo_flow2.5" vType="vtypeauto" speedFactor="1.02" vaporized=""/>
    <tripinfo id="flow0.2" depart="12.00" departLane="B4B3_0" departPos="4.10" departSpeed="0.00" departDelay="0.00" arrival="89.50" arrivalLane="B3A3_2" arrivalPos="72.80" arrivalSpeed="14.03" duration="77.50" routeLength="560.63" waitingTime="12.10" waitingCount="1" stopTime="0.00" timeLoss="36.09" rerouteNo="0" devices="tripinfo_flow0.2" vType="vtypeauto" speedFactor="1.02" vaporized=""/>
    <tripinfo id="flow0.3" depart="18.00" departLane="B4B3_0" departPos="4.10" departSpeed="0.00" departDelay="0.00" arrival="91.00" arrivalLane="B3A3_2" arrivalPos="72.80" arrivalSpeed="16.27" duration="73.00" routeLength="560.63" waitingTime="7.80" waitingCount="1" stopTime="0.00" timeLoss="37.14" rerouteNo="0" devices="tripinfo_flow0.3" vType="vtypeauto" speedFactor="1.18" vaporized=""/>
    <tripinfo id="flow2.6" depart="36.00" departLane="A0A1_0" departPos="4.10" departSpeed="0.00" departDelay="0.00" arrival="91.80" arrivalLane="C3D3_0" arrivalPos="72.80" arrivalSpeed="14.05" duration="55.80" routeLength="512.81" waitingTime="0.00" waitingCount="0" stopTime="0.00" timeLoss="16.03" rerouteNo="0" devices="tripinfo_flow2.6" vType="vtypeauto" speedFactor="1.02" vaporized=""/>
    <tripinfo id="flow0.4" depart="24.00" departLane="B4B3_0" departPos="4.10" departSpeed="0.00" departDelay="0.00" arrival="92.70" arrivalLane="B3A3_2" arrivalPos="72.80" arrivalSpeed="14.28" duration="68.70" routeLength="560.63" waitingTime="3.10" waitingCount="1" stopTime="0.00" timeLoss="27.75" rerouteNo="0" devices="tripinfo_flow0.4" vType="vtypeauto" speedFactor="1.03" vaporized=""/>
    <tripinfo id="flow0.5" depart="30.00" departLane="B4B3_0" departPos="4.10" departSpeed="0.00" departDelay="0.00" arrival="97.30" arrivalLane="B3A3_2" arrivalPos="72.80" arrivalSpeed="11.80" duration="67.30" routeLength="560.63" waitingTime="0.00" waitingCount="0" stopTime="0.00" timeLoss="17.92" rerouteNo="0" devices="tripinfo_flow0.5" vType="vtypeauto" speedFactor="0.85" vaporized=""/>
    <tripinfo id="flow0.6" depart="36.00" departLane="B4B3_0" departPos="4.10" departSpeed="0.00" departDelay="0.00" arrival="98.80" arrivalLane="B3A3_2" arrivalPos="72.80" arrivalSpeed="14.56" duration="62.80" routeLength="560.63" waitingTime="0.00" waitingCount="0" stopTime="0.00" timeLoss="23.82" rerouteNo="0" devices="tripinfo_flow0.6" vType="vtypeauto" speedFactor="1.08" vaporized=""/>
    <tripinfo id="flow8.2" depart="14.70" departLane="D4D3_0" departPos="4.10" departSpeed="0.00" departDelay="2.70" arrival="100.70" arrivalLane="B1A1_1" arrivalPos="72.80" arrivalSpeed="15.65" duration="86.00" routeLength="550.53" waitingTime="33.00" waitingCount="1" stopTime="0.00" timeLoss="50.33" rerouteNo="0" devices="tripinfo_flow8.2" vType="vtypeauto" speedFactor="1.13" vaporized=""/>
    <tripinfo id="flow1.12" depart="72.00" departLane="A3B3_0" departPos="4.10" departSpeed="0.00" departDelay="0.00" arrival="101.80" arrivalLane="D3E3_2" arrivalPos="72.80" arrivalSpeed="15.29" duration="29.80" routeLength="368.70" waitingTime="0.00" waitingCount="0" stopTime="0.00" timeLoss="5.73" rerouteNo="0" devices="tripinfo_flow1.12" vType="vtypeauto" speedFactor="1.10" vaporized=""/>
    <tripinfo id="flow8.0" depart="2.80" departLane="D4D3_0" departPos="4.10" departSpeed="0.00" departDelay="2.80" arrival="102.80" arrivalLane="B1A1_1" arrivalPos="72.80" arrivalSpeed="12.92" duration="100.00" routeLength="550.53" waitingTime="38.00" waitingCount="2" stopTime="0.00" timeLoss="56.86" rerouteNo="0" devices="tripinfo_flow8.0" vType="vtypeauto" speedFactor="0.94" vaporized=""/>
    <tripinfo id="flow8.5" depart="32.80" departLane="D4D3_0" departPos="4.10" departSpeed="0.00" departDelay="2.80" arrival="103.10" arrivalLane="B1A1_2" arrivalPos="72.80" arrivalSpeed="14.09" duration="70.30" routeLength="550.53" waitingTime="8.50" waitingCount="2" stopTime="0.00" timeLoss="30.80" rerouteNo="0" devices="tripinfo_flow8.5" vType="vtypeauto" speedFactor="1.02" vaporized=""/>
    <tripinfo id="flow8.1" depart="8.90" departLane="D4D3_0" departPos="4.10" departSpeed="0.00" departDelay="2.90" arrival="104.10" arrivalLane="B1A1_0" arrivalPos="72.80" arrivalSpeed="12.93" duration="95.20" routeLength="550.53" waitingTime="32.40" waitingCount="1" stopTime="0.00" timeLoss="52.04" rerouteNo="0" devices="tripinfo_flow8.1" vType="vtypeauto" speedFactor="0.94" vaporized=""/>
    <tripinfo id="flow8.3" depart="20.70" departLane="D4D3_0" departPos="4.10" departSpeed="0.00" departDelay="2.70" arrival="104.20" arrivalLane="B1A1_1" arrivalPos="72.80" arrivalSpeed="15.20" duration="83.50" routeLength="550.53" waitingTime="27.70" waitingCount="1" stopTime="0.00" timeLoss="46.91" rerouteNo="0" devices="tripinfo_flow8.3" vType="vtypeauto" speedFactor="1.10" vaporized=""/>
    <tripinfo id="flow1.10" depart="60.00" departLane="A3B3_0" departPos="4.10" departSpeed="0.00" departDelay="0.00" arrival="106.30" arrivalLane="D3E3_1" arrivalPos="72.80" arrivalSpeed="13.24" duration="46.30" routeLength="368.70" waitingTime="6.50" waitingCount="2" stopTime="0.00" timeLoss="18.55" rerouteNo="0" devices="tripinfo_flow1.10" vType="vtypeauto" speedFactor="0.96" vaporized=""/>
    <tripinfo id="flow6.8" depart="48.00" departLane="D4D3_0" departPos="4.10" departSpeed="0.00" departDelay="0.00" arrival="106.70" arrivalLane="D1D0_1" arrivalPos="72.80" arrivalSpeed="13.80" duration="58.70" routeLength="368.70" waitingTime="19.30" waitingCount="2" stopTime="0.00" timeLoss="32.17" rerouteNo="0" devices="tripinfo_flow6.8" vType="vtypeauto" speedFactor="1.00" vaporized=""/>
    <tripinfo id="flow6.9" depart="54.00" departLane="D4D3_0" departPos="4.10" departSpeed="0.00" departDelay="0.00" arrival="106.80" arrivalLane="D1D0_2" arrivalPos="72.80" arrivalSpeed="13.98" duration="52.80" routeLength="368.70" waitingTime="12.90" waitingCount="2" stopTime="0.00" timeLoss="26.44" rerouteNo="0" devices="tripinfo_flow6.9" vType="vtypeauto" speedFactor="1.01" vaporized=""/>
    <tripinfo id="flow1.9" depart="54.00" departLane="A3B3_0" departPos="4.10" departSpeed="0.00" departDelay="0.00" arrival="107.40" arrivalLane="D3E3_0" arrivalPos="72.80" arrivalSpeed="12.30" duration="53.40" routeLength="368.70" waitingTime="12.70" waitingCount="2" stopTime="0.00" timeLoss="23.62" rerouteNo="0" devices="tripinfo_flow1.9" vType="vtypeauto" speedFactor="0.89" vaporized=""/>
    <tripinfo id="flow1.13" depart="78.00" departLane="A3B3_0" departPos="4.10" departSpeed="0.00" departDelay="0.00" arrival="107.80" arrivalLane="D3E3_1" arrivalPos="72.80" arrivalSpeed="14.72" duration="29.80" routeLength="368.70" waitingTime="0.00" waitingCount="0" stopTime="0.00" timeLoss="4.95" rerouteNo="0" devices="tripinfo_flow1.13" vType="vtypeauto" speedFactor="1.07" vaporized=""/>
    <tripinfo id="flow6.7" depart="42.00" departLane="D4D3_0" departPos="4.10" departSpeed="0.00" departDelay="0.00" arrival="108.20" arrivalLane="D1D0_1" arrivalPos="72.80" arrivalSpeed="14.31" duration="66.20" routeLength="368.70" waitingTime="21.30" waitingCount="2" stopTime="0.00" timeLoss="40.46" rerouteNo="0" devices="tripinfo_flow6.7" vType="vtypeauto" speedFactor="1.03" vaporized=""/>
    <tripinfo id="flow2.7" depart="42.00" departLane="A0A1_0" departPos="4.10" departSpeed="0.00" departDelay="0.00" arrival="108.70" arrivalLane="C3D3_0" arrivalPos="72.80" arrivalSpeed="13.01" duration="66.70" routeLength="512.81" waitingTime="10.90" waitingCount="1" stopTime="0.00" timeLoss="23.77" rerouteNo="0" devices="tripinfo_flow2.7" vType="vtypeauto" speedFactor="0.94" vaporized=""/>
    <tripinfo id="flow1.11" depart="66.00" departLane="A3B3_0" departPos="4.10" departSpeed="0.00" departDelay="0.00" arrival="109.40" arrivalLane="D3E3_0" arrivalPos="72.80" arrivalSpeed="12.00" duration="43.40" routeLength="368.70" waitingTime="0.00" waitingCount="0" stopTime="0.00" timeLoss="12.67" rerouteNo="0" devices="tripinfo_flow1.11" vType="vtypeauto" speedFactor="0.87" vaporized=""/>
    <tripinfo id="flow2.8" depart="48.00" departLane="A0A1_0" departPos="4.10" departSpeed="0.00" departDelay="0.00" arrival="110.30" arrivalLane="C3D3_0" arrivalPos="72.80" arrivalSpeed="14.10" duration="62.30" routeLength="512.81" waitingTime="6.50" waitingCount="1" stopTime="0.00" timeLoss="22.68" rerouteNo="0" devices="tripinfo_flow2.8" vType="vtypeauto" speedFactor="1.02" vaporized=""/>
    <tripinfo id="flow4.4" depart="26.60" departLane="C0C1_0" departPos="4.10" departSpeed="0.00" departDelay="2.60" arrival="111.50" arrivalLane="C3C4_1" arrivalPos="72.80" arrivalSpeed="14.47" duration="84.90" routeLength="368.70" waitingTime="43.60" waitingCount="1" stopTime="0.00" timeLoss="59.41" rerouteNo="0" devices="tripinfo_flow4.4" vType="vtypeauto" speedFactor="1.04" vaporized=""/>
    <tripinfo id="flow4.3" depart="20.90" departLane="C0C1_0" departPos="4.10" departSpeed="0.00" departDelay="2.90" arrival="112.30" arrivalLane="C3C4_0" arrivalPos="72.80" arrivalSpeed="13.73" duration="91.40" routeLength="368.70" waitingTime="51.40" waitingCount="2" stopTime="0.00" timeLoss="64.70" rerouteNo="0" devices="tripinfo_flow4.3" vType="vtypeauto" speedFactor="0.99" vaporized=""/>
    <tripinfo id="flow4.5" depart="35.90" departLane="C0C1_0" departPos="4.10" departSpeed="0.00" departDelay="5.90" arrival="113.90" arrivalLane="C3C4_0" arrivalPos="72.80" arrivalSpeed="13.83" duration="78.00" routeLength="368.70" waitingTime="38.70" waitingCount="1" stopTime="0.00" timeLoss="51.50" rerouteNo="0" devices="tripinfo_flow4.5" vType="vtypeauto" speedFactor="1.00" vaporized=""/>
    <tripinfo id="flow4.7" depart="48.40" departLane="C0C1_0" departPos="4.10" departSpeed="0.00" departDelay="6.40" arrival="113.90" arrivalLane="C3C4_1" arrivalPos="72.80" arrivalSpeed="13.24" duration="65.50" routeLength="368.70" waitingTime="25.60" waitingCount="1" stopTime="0.00" timeLoss="37.64" rerouteNo="0" devices="tripinfo_flow4.7" vType="vtypeauto" speedFactor="0.96" vaporized=""/>
    <tripinfo id="flow4.6" depart="38.80" departLane="C0C1_0" departPos="4.10" departSpeed="0.00" departDelay="2.80" arrival="115.50" arrivalLane="C3C4_1" arrivalPos="72.80" arrivalSpeed="12.92" duration="76.70" routeLength="368.70" waitingTime="37.30" waitingCount="1" stopTime="0.00" timeLoss="48.37" rerouteNo="0" devices="tripinfo_flow4.6" vType="vtypeauto" speedFactor="0.94" vaporized=""/>
    <tripinfo id="flow4.9" depart="61.30" departLane="C0C1_0" departPos="4.10" departSpeed="0.00" departDelay="7.30" arrival="115.60" arrivalLane="C3C4_2" arrivalPos="72.80" arrivalSpeed="15.08" duration="54.30" routeLength="368.70" waitingTime="13.20" waitingCount="1" stopTime="0.00" timeLoss="29.94" rerouteNo="0" devices="tripinfo_flow4.9" vType="vtypeauto" speedFactor="1.09" vaporized=""/>
    <tripinfo id="flow9.6" depart="36.00" departLane="A2B2_0" departPos="4.10" departSpeed="0.00" departDelay="0.00" arrival="118.00" arrivalLane="D2E2_0" arrivalPos="72.80" arrivalSpeed="14.12" duration="82.00" routeLength="368.70" waitingTime="45.20" waitingCount="1" stopTime="0.00" timeLoss="55.97" rerouteNo="0" devices="tripinfo_flow9.6" vType="vtypeauto" speedFactor="1.02" vaporized=""/>
    <tripinfo id="flow9.9" depart="54.00" departLane="A2B2_0" departPos="4.10" departSpeed="0.00" departDelay="0.00" arrival="118.40" arrivalLane="D2E2_1" arrivalPos="72.80" arrivalSpeed="15.14" duration="64.40" routeLength="368.70" waitingTime="24.90" waitingCount="1" stopTime="0.00" timeLoss="40.15" rerouteNo="0" devices="tripinfo_flow9.9" vType="vtypeauto" speedFactor="1.10" vaporized=""/>
    <tripinfo id="flow8.9" depart="56.80" departLane="D4D3_0" departPos="4.10" departSpeed="0.00" departDelay="2.80" arrival="118.70" arrivalLane="B1A1_2" arrivalPos="72.80" arrivalSpeed="29.82" duration="61.90" routeLength="550.53" waitingTime="4.30" waitingCount="1" stopTime="0.00" timeLoss="34.44" rerouteNo="0" devices="tripinfo_flow8.9" vType="vtypeauto@flow8.9" speedFactor="2.15" vaporized=""/>
    <tripinfo id="flow9.8" depart="48.00" departLane="A2B2_0" departPos="4.10" departSpeed="0.00" departDelay="0.00" arrival="120.70" arrivalLane="D2E2_2" arrivalPos="72.80" arrivalSpeed="14.19" duration="72.70" routeLength="368.70" waitingTime="33.20" waitingCount="1" stopTime="0.00" timeLoss="46.72" rerouteNo="0" devices="tripinfo_flow9.8" vType="vtypeauto" speedFactor="1.02" vaporized=""/>
    <tripinfo id="flow9.12" depart="72.00" departLane="A2B2_0" departPos="4.10" departSpeed="0.00" departDelay="0.00" arrival="120.80" arrivalLane="D2E2_1" arrivalPos="72.80" arrivalSpeed="13.93" duration="48.80" routeLength="368.70" waitingTime="8.00" waitingCount="1" stopTime="0.00" timeLoss="22.40" rerouteNo="0" devices="tripinfo_flow9.12" vType="vtypeauto" speedFactor="1.01" vaporized=""/>
    <tripinfo id="flow9.5" depart="30.00" departLane="A2B2_0" departPos="4.10" departSpeed="0.00" departDelay="0.00" arrival="121.70" arrivalLane="D2E2_0" arrivalPos="72.80" arrivalSpeed="13.41" duration="91.70" routeLength="368.70" waitingTime="51.70" waitingCount="1" stopTime="0.00" timeLoss="64.31" rerouteNo="0" devices="tripinfo_flow9.5" vType="vtypeauto" speedFactor="0.97" vaporized=""/>
    <tripinfo id="flow9.15" depart="90.00" departLane="A2B2_0" departPos="4.10" departSpeed="0.00" departDelay="0.00" arrival="122.20" arrivalLane="D2E2_1" arrivalPos="72.80" arrivalSpeed="15.74" duration="32.20" routeLength="368.70" waitingTime="0.00" waitingCount="0" stopTime="0.00" timeLoss="8.95" rerouteNo="0" devices="tripinfo_flow9.15" vType="vtypeauto" speedFactor="1.14" vaporized=""/>
    <tripinfo id="flow9.11" depart="66.00" departLane="A2B2_0" departPos="4.10" departSpeed="0.00" departDelay="0.00" arrival="122.30" arrivalLane="D2E2_2" arrivalPos="72.80" arrivalSpeed="14.83" duration="56.30" routeLength="368.70" waitingTime="12.70" waitingCount="1" stopTime="0.00" timeLoss="31.46" rerouteNo="0" devices="tripinfo_flow9.11" vType="vtypeauto" speedFactor="1.07" vaporized=""/>
    <tripinfo id="flow9.7" depart="42.00" departLane="A2B2_0" departPos="4.10" departSpeed="0.00" departDelay="0.00" arrival="123.20" arrivalLane="D2E2_0" arrivalPos="72.80" arrivalSpeed="15.05" duration="81.20" routeLength="368.70" waitingTime="36.90" waitingCount="1" stopTime="0.00" timeLoss="56.74" rerouteNo="0" devices="tripinfo_flow9.7" vType="vtypeauto" speedFactor="1.09" vaporized=""/>
    <tripinfo id="flow2.9" depart="54.00" departLane="A0A1_0" departPos="4.10" departSpeed="0.00" departDelay="0.00" arrival="123.20" arrivalLane="C3D3_0" arrivalPos="72.80" arrivalSpeed="11.51" duration="69.20" routeLength="512.81" waitingTime="4.50" waitingCount="1" stopTime="0.00" timeLoss="20.87" rerouteNo="0" devices="tripinfo_flow2.9" vType="vtypeauto" speedFactor="0.83" vaporized=""/>
    <tripinfo id="flow9.14" depart="84.00" departLane="A2B2_0" departPos="4.10" departSpeed="0.00" departDelay="0.00" arrival="123.90" arrivalLane="D2E2_2" arrivalPos="72.80" arrivalSpeed="14.38" duration="39.90" routeLength="368.70" waitingTime="0.00" waitingCount="0" stopTime="0.00" timeLoss="14.29" rerouteNo="0" devices="tripinfo_flow9.14" vType="vtypeauto" speedFactor="1.04" vaporized=""/>
    <tripinfo id="flow8.6" depart="38.80" departLane="D4D3_0" departPos="4.10" departSpeed="0.00" departDelay="2.80" arrival="124.30" arrivalLane="B1A1_1" arrivalPos="72.80" arrivalSpeed="14.35" duration="85.50" routeLength="550.53" waitingTime="25.10" waitingCount="2" stopTime="0.00" timeLoss="46.67" rerouteNo="0" devices="tripinfo_flow8.6" vType="vtypeauto" speedFactor="1.04" vaporized=""/>
    <tripinfo id="flow9.10" depart="60.00" departLane="A2B2_0" departPos="4.10" departSpeed="0.00" departDelay="0.00" arrival="125.00" arrivalLane="D2E2_0" arrivalPos="72.80" arrivalSpeed="13.32" duration="65.00" routeLength="368.70" waitingTime="20.20" waitingCount="1" stopTime="0.00" timeLoss="37.28" rerouteNo="0" devices="tripinfo_flow9.10" vType="vtypeauto" speedFactor="0.96" vaporized=""/>
    <tripinfo id="flow9.13" depart="78.00" departLane="A2B2_0" departPos="4.10" departSpeed="0.00" departDelay="0.00" arrival="125.20" arrivalLane="D2E2_1" arrivalPos="72.80" arrivalSpeed="13.12" duration="47.20" routeLength="368.70" waitingTime="3.30" waitingCount="1" stopTime="0.00" timeLoss="19.32" rerouteNo="0" devices="tripinfo_flow9.13" vType="vtypeauto" speedFactor="0.95" vaporized=""/>