<?xml version="1.0" encoding="UTF-8"?>

<!-- generated on 2024-10-29 13:00:27 by Eclipse SUMO sumo Version 1.20.0
<configuration xmlns:xsi="http://www.w3.org/2001/XMLSchema-instance" xsi:noNamespaceSchemaLocation="http://sumo.dlr.de/xsd/sumoConfiguration.xsd">

    <input>
        <net-file value="./sim_cfg_grid_3_lanes/grid.net.xml"/>
        <route-files value="./sim_cfg_grid_3_lanes/7x0.08.rou.xml"/>
    </input>

    <output>
        <tripinfo-output value="./sim_cfg_grid_3_lanes/tripinfo-platooning_0.067.xml"/>
    </output>

    <time>
        <begin value="0"/>
        <end value="500"/>
        <step-length value="0.1"/>
    </time>

    <traci_server>
        <remote-port value="49647"/>
    </traci_server>

    <gui_only>
        <gui-settings-file value="./sim_cfg_grid_3_lanes/gui_settings.xml"/>
    </gui_only>

</configuration>
-->

<tripinfos xmlns:xsi="http://www.w3.org/2001/XMLSchema-instance" xsi:noNamespaceSchemaLocation="http://sumo.dlr.de/xsd/tripinfo_file.xsd">
    <tripinfo id="flow1.0" depart="0.00" departLane="A3B3_0" departPos="4.10" departSpeed="0.00" departDelay="0.00" arrival="52.80" arrivalLane="D3E3_0" arrivalPos="72.80" arrivalSpeed="13.03" duration="52.80" routeLength="368.70" waitingTime="13.10" waitingCount="2" stopTime="0.00" timeLoss="24.49" rerouteNo="0" devices="tripinfo_flow1.0" vType="vtypeauto" speedFactor="0.94" vaporized=""/>
    <tripinfo id="flow6.1" depart="12.00" departLane="D4D3_0" departPos="4.10" departSpeed="0.00" departDelay="0.00" arrival="58.30" arrivalLane="D1D0_1" arrivalPos="72.80" arrivalSpeed="15.50" duration="46.30" routeLength="368.70" waitingTime="8.40" waitingCount="2" stopTime="0.00" timeLoss="22.59" rerouteNo="0" devices="tripinfo_flow6.1" vType="vtypeauto" speedFactor="1.12" vaporized=""/>
    <tripinfo id="flow6.0" depart="0.00" departLane="D4D3_0" departPos="4.10" departSpeed="0.00" departDelay="0.00" arrival="58.50" arrivalLane="D1D0_0" arrivalPos="72.80" arrivalSpeed="14.43" duration="58.50" routeLength="368.70" waitingTime="15.80" waitingCount="3" stopTime="0.00" timeLoss="33.12" rerouteNo="0" devices="tripinfo_flow6.0" vType="vtypeauto" speedFactor="1.05" vaporized=""/>
    <tripinfo id="flow4.1" depart="12.40" departLane="C0C1_0" departPos="4.10" departSpeed="0.00" departDelay="0.40" arrival="58.60" arrivalLane="C3C4_1" arrivalPos="72.80" arrivalSpeed="14.23" duration="46.20" routeLength="368.70" waitingTime="7.10" waitingCount="2" stopTime="0.00" timeLoss="20.32" rerouteNo="0" devices="tripinfo_flow4.1" vType="vtypeauto" speedFactor="1.03" vaporized=""/>
    <tripinfo id="flow4.0" depart="0.40" departLane="C0C1_0" departPos="4.10" departSpeed="0.00" departDelay="0.40" arrival="58.70" arrivalLane="C3C4_0" arrivalPos="72.80" arrivalSpeed="14.23" duration="58.30" routeLength="368.70" waitingTime="15.40" waitingCount="3" stopTime="0.00" timeLoss="32.51" rerouteNo="0" devices="tripinfo_flow4.0" vType="vtypeauto" speedFactor="1.03" vaporized=""/>
    <tripinfo id="flow0.0" depart="0.00" departLane="B4B3_0" departPos="4.10" departSpeed="0.00" departDelay="0.00" arrival="64.30" arrivalLane="B3A3_2" arrivalPos="72.80" arrivalSpeed="14.67" duration="64.30" routeLength="560.63" waitingTime="11.20" waitingCount="2" stopTime="0.00" timeLoss="24.49" rerouteNo="0" devices="tripinfo_flow0.0" vType="vtypeauto" speedFactor="1.06" vaporized=""/>
    <tripinfo id="flow5.0" depart="0.00" departLane="E2D2_0" departPos="4.10" departSpeed="0.00" departDelay="0.00" arrival="64.40" arrivalLane="B1A1_0" arrivalPos="72.80" arrivalSpeed="11.48" duration="64.40" routeLength="606.12" waitingTime="0.00" waitingCount="0" stopTime="0.00" timeLoss="7.18" rerouteNo="0" devices="tripinfo_flow5.0" vType="vtypeauto" speedFactor="0.83" vaporized=""/>
    <tripinfo id="flow2.0" depart="0.00" departLane="A0A1_0" departPos="4.10" departSpeed="0.00" departDelay="0.00" arrival="65.50" arrivalLane="C3D3_0" arrivalPos="72.80" arrivalSpeed="5.88" duration="65.50" routeLength="512.81" waitingTime="6.60" waitingCount="1" stopTime="0.00" timeLoss="25.57" rerouteNo="0" devices="tripinfo_flow2.0" vType="vtypeauto" speedFactor="1.01" vaporized=""/>
    <tripinfo id="flow2.1" depart="12.00" departLane="A0A1_0" departPos="4.10" departSpeed="0.00" departDelay="0.00" arrival="67.50" arrivalLane="C3D3_0" arrivalPos="72.80" arrivalSpeed="11.85" duration="55.50" routeLength="512.81" waitingTime="0.00" waitingCount="0" stopTime="0.00" timeLoss="8.46" rerouteNo="0" devices="tripinfo_flow2.1" vType="vtypeauto" speedFactor="0.86" vaporized=""/>
    <tripinfo id="flow1.1" depart="12.00" departLane="A3B3_0" departPos="4.10" departSpeed="0.00" departDelay="0.00" arrival="72.90" arrivalLane="D3E3_0" arrivalPos="72.80" arrivalSpeed="12.90" duration="60.90" routeLength="368.70" waitingTime="16.90" waitingCount="3" stopTime="0.00" timeLoss="32.58" rerouteNo="0" devices="tripinfo_flow1.1" vType="vtypeauto" speedFactor="0.94" vaporized=""/>
    <tripinfo id="flow1.2" depart="24.00" departLane="A3B3_0" departPos="4.10" departSpeed="0.00" departDelay="0.00" arrival="73.10" arrivalLane="D3E3_1" arrivalPos="72.80" arrivalSpeed="12.84" duration="49.10" routeLength="368.70" waitingTime="12.40" waitingCount="1" stopTime="0.00" timeLoss="20.43" rerouteNo="0" devices="tripinfo_flow1.2" vType="vtypeauto" speedFactor="0.93" vaporized=""/>
    <tripinfo id="flow6.2" depart="24.00" departLane="D4D3_0" departPos="4.10" departSpeed="0.00" departDelay="0.00" arrival="76.60" arrivalLane="D1D0_0" arrivalPos="72.80" arrivalSpeed="14.03" duration="52.60" routeLength="368.70" waitingTime="9.50" waitingCount="3" stopTime="0.00" timeLoss="26.49" rerouteNo="0" devices="tripinfo_flow6.2" vType="vtypeauto" speedFactor="1.02" vaporized=""/>
    <tripinfo id="flow5.1" depart="12.00" departLane="E2D2_0" departPos="4.10" departSpeed="0.00" departDelay="0.00" arrival="79.60" arrivalLane="B1A1_0" arrivalPos="72.80" arrivalSpeed="14.52" duration="67.60" routeLength="606.12" waitingTime="5.90" waitingCount="2" stopTime="0.00" timeLoss="22.05" rerouteNo="0" devices="tripinfo_flow5.1" vType="vtypeauto" speedFactor="1.05" vaporized=""/>
    <tripinfo id="flow4.2" depart="24.40" departLane="C0C1_0" departPos="4.10" departSpeed="0.00" departDelay="0.40" arrival="81.90" arrivalLane="C3C4_0" arrivalPos="72.80" arrivalSpeed="12.90" duration="57.50" routeLength="368.70" waitingTime="13.70" waitingCount="3" stopTime="0.00" timeLoss="29.11" rerouteNo="0" devices="tripinfo_flow4.2" vType="vtypeauto" speedFactor="0.94" vaporized=""/>
    <tripinfo id="flow2.2" depart="24.00" departLane="A0A1_0" departPos="4.10" departSpeed="0.00" departDelay="0.00" arrival="83.70" arrivalLane="C3D3_0" arrivalPos="72.80" arrivalSpeed="11.69" duration="59.70" routeLength="512.81" waitingTime="0.50" waitingCount="1" stopTime="0.00" timeLoss="13.79" rerouteNo="0" devices="tripinfo_flow2.2" vType="vtypeauto" speedFactor="0.88" vaporized=""/>
    <tripinfo id="flow0.1" depart="12.00" departLane="B4B3_0" departPos="4.10" departSpeed="0.00" departDelay="0.00" arrival="85.20" arrivalLane="B3A3_0" arrivalPos="72.80" arrivalSpeed="12.22" duration="73.20" routeLength="560.63" waitingTime="9.20" waitingCount="1" stopTime="0.00" timeLoss="25.61" rerouteNo="0" devices="tripinfo_flow0.1" vType="vtypeauto" speedFactor="0.89" vaporized=""/>
    <tripinfo id="flow0.2" depart="24.00" departLane="B4B3_0" departPos="4.10" departSpeed="0.00" departDelay="0.00" arrival="89.70" arrivalLane="B3A3_2" arrivalPos="72.80" arrivalSpeed="13.72" duration="65.70" routeLength="560.63" waitingTime="8.00" waitingCount="2" stopTime="0.00" timeLoss="23.11" rerouteNo="0" devices="tripinfo_flow0.2" vType="vtypeauto" speedFactor="0.99" vaporized=""/>
    <tripinfo id="flow1.3" depart="36.00" departLane="A3B3_0" departPos="4.10" departSpeed="0.00" departDelay="0.00" arrival="90.90" arrivalLane="D3E3_0" arrivalPos="72.80" arrivalSpeed="13.49" duration="54.90" routeLength="368.70" waitingTime="11.50" waitingCount="3" stopTime="0.00" timeLoss="27.59" rerouteNo="0" devices="tripinfo_flow1.3" vType="vtypeauto" speedFactor="0.97" vaporized=""/>
    <tripinfo id="flow1.4" depart="48.00" departLane="A3B3_0" departPos="4.10" departSpeed="0.00" departDelay="0.00" arrival="91.00" arrivalLane="D3E3_0" arrivalPos="72.80" arrivalSpeed="12.93" duration="43.00" routeLength="368.70" waitingTime="6.30" waitingCount="1" stopTime="0.00" timeLoss="14.43" rerouteNo="0" devices="tripinfo_flow1.4" vType="vtypeauto" speedFactor="0.93" vaporized=""/>
    <tripinfo id="flow0.3" depart="36.00" departLane="B4B3_0" departPos="4.10" departSpeed="0.00" departDelay="0.00" arrival="91.50" arrivalLane="B3A3_2" arrivalPos="72.80" arrivalSpeed="13.94" duration="55.50" routeLength="560.63" waitingTime="0.00" waitingCount="0" stopTime="0.00" timeLoss="13.74" rerouteNo="0" devices="tripinfo_flow0.3" vType="vtypeauto" speedFactor="1.01" vaporized=""/>
    <tripinfo id="flow6.4" depart="48.00" departLane="D4D3_0" departPos="4.10" departSpeed="0.00" departDelay="0.00" arrival="92.80" arrivalLane="D1D0_1" arrivalPos="72.80" arrivalSpeed="13.73" duration="44.80" routeLength="368.70" waitingTime="5.10" waitingCount="2" stopTime="0.00" timeLoss="18.12" rerouteNo="0" devices="tripinfo_flow6.4" vType="vtypeauto" speedFactor="0.99" vaporized=""/>
    <tripinfo id="flow6.3" depart="36.00" departLane="D4D3_0" departPos="4.10" departSpeed="0.00" departDelay="0.00" arrival="93.00" arrivalLane="D1D0_0" arrivalPos="72.80" arrivalSpeed="13.13" duration="57.00" routeLength="368.70" waitingTime="12.90" waitingCount="3" stopTime="0.00" timeLoss="28.95" rerouteNo="0" devices="tripinfo_flow6.3" vType="vtypeauto" speedFactor="0.95" vaporized=""/>
    <tripinfo id="flow5.2" depart="24.00" departLane="E2D2_0" departPos="4.10" departSpeed="0.00" departDelay="0.00" arrival="97.50" arrivalLane="B1A1_0" arrivalPos="72.80" arrivalSpeed="16.02" duration="73.50" routeLength="606.12" waitingTime="9.70" waitingCount="3" stopTime="0.00" timeLoss="32.31" rerouteNo="0" devices="tripinfo_flow5.2" vType="vtypeauto" speedFactor="1.16" vaporized=""/>
    <tripinfo id="flow4.4" depart="48.30" departLane="C0C1_0" departPos="4.10" departSpeed="0.00" departDelay="0.30" arrival="103.80" arrivalLane="C3C4_1" arrivalPos="72.80" arrivalSpeed="13.85" duration="55.50" routeLength="368.70" waitingTime="16.10" waitingCount="2" stopTime="0.00" timeLoss="29.05" rerouteNo="0" devices="tripinfo_flow4.4" vType="vtypeauto" speedFactor="1.01" vaporized=""/>
    <tripinfo id="flow4.3" depart="36.40" departLane="C0C1_0" departPos="4.10" departSpeed="0.00" departDelay="0.40" arrival="104.30" arrivalLane="C3C4_0" arrivalPos="72.80" arrivalSpeed="12.04" duration="67.90" routeLength="368.70" waitingTime="22.90" waitingCount="3" stopTime="0.00" timeLoss="37.41" rerouteNo="0" devices="tripinfo_flow4.3" vType="vtypeauto" speedFactor="0.87" vaporized=""/>
    <tripinfo id="flow2.3" depart="36.00" departLane="A0A1_0" departPos="4.10" departSpeed="0.00" departDelay="0.00" arrival="105.00" arrivalLane="C3D3_0" arrivalPos="72.80" arrivalSpeed="12.29" duration="69.00" routeLength="512.81" waitingTime="5.30" waitingCount="1" stopTime="0.00" timeLoss="23.78" rerouteNo="0" devices="tripinfo_flow2.3" vType="vtypeauto" speedFactor="0.89" vaporized=""/>
    <tripinfo id="flow6.5" depart="60.00" departLane="D4D3_0" departPos="4.10" departSpeed="0.00" departDelay="0.00" arrival="107.40" arrivalLane="D1D0_1" arrivalPos="72.80" arrivalSpeed="13.18" duration="47.40" routeLength="368.70" waitingTime="4.90" waitingCount="2" stopTime="0.00" timeLoss="19.59" rerouteNo="0" devices="tripinfo_flow6.5" vType="vtypeauto" speedFactor="0.96" vaporized=""/>
    <tripinfo id="flow1.6" depart="72.00" departLane="A3B3_0" departPos="4.10" departSpeed="0.00" departDelay="0.00" arrival="108.60" arrivalLane="D3E3_1" arrivalPos="72.80" arrivalSpeed="14.31" duration="36.60" routeLength="368.70" waitingTime="1.90" waitingCount="1" stopTime="0.00" timeLoss="11.00" rerouteNo="0" devices="tripinfo_flow1.6" vType="vtypeauto" speedFactor="1.04" vaporized=""/>
    <tripinfo id="flow1.5" depart="60.00" departLane="A3B3_0" departPos="4.10" departSpeed="0.00" departDelay="0.00" arrival="108.90" arrivalLane="D3E3_0" arrivalPos="72.80" arrivalSpeed="13.48" duration="48.90" routeLength="368.70" waitingTime="9.70" waitingCount="2" stopTime="0.00" timeLoss="21.62" rerouteNo="0" devices="tripinfo_flow1.5" vType="vtypeauto" speedFactor="0.97" vaporized=""/>
    <tripinfo id="flow0.4" depart="48.00" departLane="B4B3_0" departPos="4.10" departSpeed="0.00" departDelay="0.00" arrival="109.20" arrivalLane="B3A3_2" arrivalPos="72.80" arrivalSpeed="15.68" duration="61.20" routeLength="560.63" waitingTime="6.50" waitingCount="2" stopTime="0.00" timeLoss="23.90" rerouteNo="0" devices="tripinfo_flow0.4" vType="vtypeauto" speedFactor="1.13" vaporized=""/>
    <tripinfo id="flow0.5" depart="60.00" departLane="B4B3_0" departPos="4.10" departSpeed="0.00" departDelay="0.00" arrival="111.80" arrivalLane="B3A3_2" arrivalPos="72.80" arrivalSpeed="14.10" duration="51.80" routeLength="560.63" waitingTime="0.00" waitingCount="0" stopTime="0.00" timeLoss="10.44" rerouteNo="0" devices="tripinfo_flow0.5" vType="vtypeauto" speedFactor="1.02" vaporized=""/>
    <tripinfo id="flow5.3" depart="36.00" departLane="E2D2_0" departPos="4.10" departSpeed="0.00" departDelay="0.00" arrival="115.70" arrivalLane="B1A1_0" arrivalPos="72.80" arrivalSpeed="12.68" duration="79.70" routeLength="606.12" waitingTime="11.20" waitingCount="1" stopTime="0.00" timeLoss="27.73" rerouteNo="0" devices="tripinfo_flow5.3" vType="vtypeauto" speedFactor="0.92" vaporized=""/>
    <tripinfo id="flow5.4" depart="48.00" departLane="E2D2_0" departPos="4.10" departSpeed="0.00" departDelay="0.00" arrival="117.30" arrivalLane="B1A1_0" arrivalPos="72.80" arrivalSpeed="16.26" duration="69.30" routeLength="606.12" waitingTime="5.00" waitingCount="3" stopTime="0.00" timeLoss="28.63" rerouteNo="0" devices="tripinfo_flow5.4" vType="vtypeauto" speedFactor="1.17" vaporized=""/>
    <tripinfo id="flow2.4" depart="48.00" departLane="A0A1_0" departPos="4.10" departSpeed="0.00" departDelay="0.00" arrival="118.20" arrivalLane="C3D3_0" arrivalPos="72.80" arrivalSpeed="16.30" duration="70.20" routeLength="512.81" waitingTime="9.90" waitingCount="1" stopTime="0.00" timeLoss="36.02" rerouteNo="0" devices="tripinfo_flow2.4" vType="vtypeauto" speedFactor="1.18" vaporized=""/>
    <tripinfo id="flow4.7" depart="84.30" departLane="C0C1_0" departPos="4.10" departSpeed="0.00" departDelay="0.30" arrival="119.20" arrivalLane="C3C4_2" arrivalPos="72.80" arrivalSpeed="15.18" duration="34.90" routeLength="368.70" waitingTime="0.00" waitingCount="0" stopTime="0.00" timeLoss="10.60" rerouteNo="0" devices="tripinfo_flow4.7" vType="vtypeauto" speedFactor="1.10" vaporized=""/>
    <tripinfo id="flow4.5" depart="60.40" departLane="C0C1_0" departPos="4.10" departSpeed="0.00" departDelay="0.40" arrival="120.20" arrivalLane="C3C4_0" arrivalPos="72.80" arrivalSpeed="12.47" duration="59.80" routeLength="368.70" waitingTime="14.80" waitingCount="3" stopTime="0.00" timeLoss="30.31" rerouteNo="0" devices="tripinfo_flow4.5" vType="vtypeauto" speedFactor="0.90" vaporized=""/>
    <tripinfo id="flow4.6" depart="72.40" departLane="C0C1_0" departPos="4.10" departSpeed="0.00" departDelay="0.40" arrival="121.70" arrivalLane="C3C4_0" arrivalPos="72.80" arrivalSpeed="13.83" duration="49.30" routeLength="368.70" waitingTime="4.70" waitingCount="2" stopTime="0.00" timeLoss="22.67" rerouteNo="0" devices="tripinfo_flow4.6" vType="vtypeauto" speedFactor="1.00" vaporized=""/>
    <tripinfo id="flow2.5" depart="60.00" departLane="A0A1_0" departPos="4.10" departSpeed="0.00" departDelay="0.00" arrival="122.10" arrivalLane="C3D3_0" arrivalPos="72.80" arrivalSpeed="16.37" duration="62.10" routeLength="512.81" waitingTime="3.60" waitingCount="2" stopTime="0.00" timeLoss="27.98" rerouteNo="0" devices="tripinfo_flow2.5" vType="vtypeauto" speedFactor="1.18" vaporized=""/>
    <tripinfo id="flow6.7" depart="84.00" departLane="D4D3_0" departPos="4.10" departSpeed="0.00" departDelay="0.00" arrival="128.80" arrivalLane="D1D0_1" arrivalPos="72.80" arrivalSpeed="13.76" duration="44.80" routeLength="368.70" waitingTime="5.40" waitingCount="2" stopTime="0.00" timeLoss="18.09" rerouteNo="0" devices="tripinfo_flow6.7" vType="vtypeauto" speedFactor="1.00" vaporized=""/>
    <tripinfo id="flow6.6" depart="72.00" departLane="D4D3_0" departPos="4.10" departSpeed="0.00" departDelay="0.00" arrival="129.30" arrivalLane="D1D0_0" arrivalPos="72.80" arrivalSpeed="12.15" duration="57.30" routeLength="368.70" waitingTime="12.20" waitingCount="3" stopTime="0.00" timeLoss="26.95" rerouteNo="0" devices="tripinfo_flow6.6" vType="vtypeauto" speedFactor="0.88" vaporized=""/>
    <tripinfo id="flow3.0" depart="0.00" departLane="C0C1_0" departPos="4.10" departSpeed="0.00" departDelay="0.00" arrival="131.10" arrivalLane="D4E4_0" arrivalPos="76.80" arrivalSpeed="14.99" duration="131.10" routeLength="1052.87" waitingTime="21.00" waitingCount="6" stopTime="0.00" timeLoss="54.36" rerouteNo="0" devices="tripinfo_flow3.0" vType="vtypeauto" speedFactor="1.08" vaporized=""/>
    <tripinfo id="flow4.8" depart="96.40" departLane="C0C1_0" departPos="4.10" departSpeed="0.00" departDelay="0.40" arrival="138.40" arrivalLane="C3C4_0" arrivalPos="72.80" arrivalSpeed="14.98" duration="42.00" routeLength="368.70" waitingTime="4.10" waitingCount="2" stopTime="0.00" timeLoss="17.47" rerouteNo="0" devices="tripinfo_flow4.8" vType="vtypeauto" speedFactor="1.08" vaporized=""/>
    <tripinfo id="flow1.8" depart="96.00" departLane="A3B3_0" departPos="4.10" departSpeed="0.00" departDelay="0.00" arrival="145.40" arrivalLane="D3E3_1" arrivalPos="72.80" arrivalSpeed="15.84" duration="49.40" routeLength="368.70" waitingTime="11.50" waitingCount="2" stopTime="0.00" timeLoss="26.09" rerouteNo="0" devices="tripinfo_flow1.8" vType="vtypeauto" speedFactor="1.14" vaporized=""/>
    <tripinfo id="flow1.7" depart="84.00" departLane="A3B3_0" departPos="4.10" departSpeed="0.00" departDelay="0.00" arrival="146.50" arrivalLane="D3E3_0" arrivalPos="72.80" arrivalSpeed="11.78" duration="62.50" routeLength="368.70" waitingTime="17.10" waitingCount="3" stopTime="0.00" timeLoss="31.37" rerouteNo="0" devices="tripinfo_flow1.7" vType="vtypeauto" speedFactor="0.85" vaporized=""/>
    <tripinfo id="flow6.8" depart="96.00" departLane="D4D3_0" departPos="4.10" departSpeed="0.00" departDelay="0.00" arrival="147.70" arrivalLane="D1D0_0" arrivalPos="72.80" arrivalSpeed="14.02" duration="51.70" routeLength="368.70" waitingTime="8.50" waitingCount="3" stopTime="0.00" timeLoss="25.50" rerouteNo="0" devices="tripinfo_flow6.8" vType="vtypeauto" speedFactor="1.02" vaporized=""/>
    <tripinfo id="flow5.5" depart="60.00" departLane="E2D2_0" departPos="4.10" departSpeed="0.00" departDelay="0.00" arrival="150.90" arrivalLane="B1A1_0" arrivalPos="72.80" arrivalSpeed="14.30" duration="90.90" routeLength="606.12" waitingTime="22.20" waitingCount="4" stopTime="0.00" timeLoss="44.74" rerouteNo="0" devices="tripinfo_flow5.5" vType="vtypeauto" speedFactor="1.03" vaporized=""/>
    <tripinfo id="flow3.1" depart="12.00" departLane="C0C1_0" departPos="4.10" departSpeed="0.00" departDelay="0.00" arrival="152.20" arrivalLane="D4E4_0" arrivalPos="76.80" arrivalSpeed="15.05" duration="140.20" routeLength="1052.87" waitingTime="25.60" waitingCount="6" stopTime="0.00" timeLoss="64.03" rerouteNo="0" devices="tripinfo_flow3.1" vType="vtypeauto" speedFactor="1.09" vaporized=""/>
    <tripinfo id="flow0.6" depart="72.00" departLane="B4B3_0" departPos="4.10" departSpeed="0.00" departDelay="0.00" arrival="156.40" arrivalLane="B3A3_1" arrivalPos="72.80" arrivalSpeed="15.09" duration="84.40" routeLength="560.63" waitingTime="23.80" waitingCount="4" stopTime="0.00" timeLoss="45.77" rerouteNo="0" devices="tripinfo_flow0.6" vType="vtypeauto" speedFactor="1.09" vaporized=""/>
    <tripinfo id="flow0.7" depart="84.00" departLane="B4B3_0" departPos="4.10" departSpeed="0.00" departDelay="0.00" arrival="157.50" arrivalLane="B3A3_2" arrivalPos="72.80" arrivalSpeed="11.70" duration="73.50" routeLength="560.63" waitingTime="0.60" waitingCount="1" stopTime="0.00" timeLoss="23.86" rerouteNo="0" devices="tripinfo_flow0.7" vType="vtypeauto" speedFactor="0.85" vaporized=""/>
    <tripinfo id="flow1.10" depart="120.00" departLane="A3B3_0" departPos="4.10" departSpeed="0.00" departDelay="0.00" arrival="159.20" arrivalLane="D3E3_1" arrivalPos="72.80" arrivalSpeed="13.44" duration="39.20" routeLength="368.70" waitingTime="3.80" waitingCount="1" stopTime="0.00" timeLoss="11.88" rerouteNo="0" devices="tripinfo_flow1.10" vType="vtypeauto" speedFactor="0.97" vaporized=""/>
    <tripinfo id="flow1.9" depart="108.00" departLane="A3B3_0" departPos="4.10" departSpeed="0.00" departDelay="0.00" arrival="159.70" arrivalLane="D3E3_0" arrivalPos="72.80" arrivalSpeed="12.98" duration="51.70" routeLength="368.70" waitingTime="11.80" waitingCount="2" stopTime="0.00" timeLoss="23.34" rerouteNo="0" devices="tripinfo_flow1.9" vType="vtypeauto" speedFactor="0.94" vaporized=""/>
    <tripinfo id="flow4.9" depart="108.40" departLane="C0C1_0" departPos="4.10" departSpeed="0.00" departDelay="0.40" arrival="160.00" arrivalLane="C3C4_0" arrivalPos="72.80" arrivalSpeed="12.65" duration="51.60" routeLength="368.70" waitingTime="11.70" waitingCount="2" stopTime="0.00" timeLoss="22.54" rerouteNo="0" devices="tripinfo_flow4.9" vType="vtypeauto" speedFactor="0.91" vaporized=""/>
    <tripinfo id="flow4.10" depart="120.30" departLane="C0C1_0" departPos="4.10" departSpeed="0.00" departDelay="0.30" arrival="160.00" arrivalLane="C3C4_1" arrivalPos="72.80" arrivalSpeed="13.17" duration="39.70" routeLength="368.70" waitingTime="3.50" waitingCount="1" stopTime="0.00" timeLoss="11.84" rerouteNo="0" devices="tripinfo_flow4.10" vType="vtypeauto" speedFactor="0.96" vaporized=""/>
    <tripinfo id="flow2.6" depart="72.00" departLane="A0A1_0" departPos="4.10" departSpeed="0.00" departDelay="0.00" arrival="160.10" arrivalLane="C3D3_0" arrivalPos="72.80" arrivalSpeed="14.45" duration="88.10" routeLength="512.81" waitingTime="18.60" waitingCount="4" stopTime="0.00" timeLoss="49.43" rerouteNo="0" devices="tripinfo_flow2.6" vType="vtypeauto" speedFactor="1.04" vaporized=""/>
    <tripinfo id="flow2.7" depart="84.00" departLane="A0A1_0" departPos="4.10" departSpeed="0.00" departDelay="0.00" arrival="161.80" arrivalLane="C3D3_0" arrivalPos="72.80" arrivalSpeed="16.18" duration="77.80" routeLength="512.81" waitingTime="15.50" waitingCount="5" stopTime="0.00" timeLoss="43.34" rerouteNo="0" devices="tripinfo_flow2.7" vType="vtypeauto" speedFactor="1.17" vaporized=""/>
    <tripinfo id="flow6.9" depart="108.00" departLane="D4D3_0" departPos="4.10" departSpeed="0.00" departDelay="0.00" arrival="164.50" arrivalLane="D1D0_0" arrivalPos="72.80" arrivalSpeed="14.12" duration="56.50" routeLength="368.70" waitingTime="15.50" waitingCount="2" stopTime="0.00" timeLoss="30.51" rerouteNo="0" devices="tripinfo_flow6.9" vType="vtypeauto" speedFactor="1.02" vaporized=""/>
    <tripinfo id="flow6.10" depart="120.00" departLane="D4D3_0" departPos="4.10" departSpeed="0.00" departDelay="0.00" arrival="164.50" arrivalLane="D1D0_1" arrivalPos="72.80" arrivalSpeed="14.32" duration="44.50" routeLength="368.70" waitingTime="5.90" waitingCount="2" stopTime="0.00" timeLoss="18.77" rerouteNo="0" devices="tripinfo_flow6.10" vType="vtypeauto" speedFactor="1.03" vaporized=""/>
    <tripinfo id="flow2.8" depart="96.00" departLane="A0A1_0" departPos="4.10" departSpeed="0.00" departDelay="0.00" arrival="166.30" arrivalLane="C3D3_0" arrivalPos="72.80" arrivalSpeed="14.20" duration="70.30" routeLength="512.81" waitingTime="14.80" waitingCount="2" stopTime="0.00" timeLoss="30.91" rerouteNo="0" devices="tripinfo_flow2.8" vType="vtypeauto" speedFactor="1.02" vaporized=""/>
    <tripinfo id="flow3.2" depart="24.00" departLane="C0C1_0" departPos="4.10" departSpeed="0.00" departDelay="0.00" arrival="169.40" arrivalLane="D4E4_0" arrivalPos="76.80" arrivalSpeed="13.02" duration="145.40" routeLength="1052.87" waitingTime="22.70" waitingCount="6" stopTime="0.00" timeLoss="57.10" rerouteNo="0" devices="tripinfo_flow3.2" vType="vtypeauto" speedFactor="0.94" vaporized=""/>
    <tripinfo id="flow2.9" depart="108.00" departLane="A0A1_0" departPos="4.10" departSpeed="0.00" departDelay="0.00" arrival="173.30" arrivalLane="C3D3_0" arrivalPos="72.80" arrivalSpeed="12.15" duration="65.30" routeLength="512.81" waitingTime="5.50" waitingCount="2" stopTime="0.00" timeLoss="19.62" rerouteNo="0" devices="tripinfo_flow2.9" vType="vtypeauto" speedFactor="0.88" vaporized=""/>
    <tripinfo id="flow0.9" depart="108.00" departLane="B4B3_0" departPos="4.10" departSpeed="0.00" departDelay="0.00" arrival="180.90" arrivalLane="B3A3_1" arrivalPos="72.80" arrivalSpeed="13.62" duration="72.90" routeLength="560.63" waitingTime="1.50" waitingCount="2" stopTime="0.00" timeLoss="30.12" rerouteNo="0" devices="tripinfo_flow0.9" vType="vtypeauto" speedFactor="0.99" vaporized=""/>
    <tripinfo id="flow0.8" depart="96.00" departLane="B4B3_0" departPos="4.10" departSpeed="0.00" departDelay="0.00" arrival="181.30" arrivalLane="B3A3_1" arrivalPos="72.80" arrivalSpeed="12.46" duration="85.30" routeLength="560.63" waitingTime="14.10" waitingCount="4" stopTime="0.00" timeLoss="38.37" rerouteNo="0" devices="tripinfo_flow0.8" vType="vtypeauto" speedFactor="0.90" vaporized=""/>
    <tripinfo id="flow0.10" depart="120.00" departLane="B4B3_0" departPos="4.10" departSpeed="0.00" departDelay="0.00" arrival="182.80" arrivalLane="B3A3_2" arrivalPos="72.80" arrivalSpeed="14.16" duration="62.80" routeLength="560.63" waitingTime="4.70" waitingCount="1" stopTime="0.00" timeLoss="21.47" rerouteNo="0" devices="tripinfo_flow0.10" vType="vtypeauto" speedFactor="1.02" vaporized=""/>
    <tripinfo id="flow0.11" depart="132.00" departLane="B4B3_0" departPos="4.10" departSpeed="0.00" departDelay="0.00" arrival="184.30" arrivalLane="B3A3_2" arrivalPos="72.80" arrivalSpeed="13.59" duration="52.30" routeLength="560.63" waitingTime="0.00" waitingCount="0" stopTime="0.00" timeLoss="9.33" rerouteNo="0" devices="tripinfo_flow0.11" vType="vtypeauto" speedFactor="0.98" vaporized=""/>
    <tripinfo id="flow6.11" depart="132.00" departLane="D4D3_0" departPos="4.10" departSpeed="0.00" departDelay="0.00" arrival="184.80" arrivalLane="D1D0_0" arrivalPos="72.80" arrivalSpeed="13.33" duration="52.80" routeLength="368.70" waitingTime="9.20" waitingCount="3" stopTime="0.00" timeLoss="25.28" rerouteNo="0" devices="tripinfo_flow6.11" vType="vtypeauto" speedFactor="0.97" vaporized=""/>
    <tripinfo id="flow2.10" depart="120.00" departLane="A0A1_0" departPos="4.10" departSpeed="0.00" departDelay="0.00" arrival="189.60" arrivalLane="C3D3_0" arrivalPos="72.80" arrivalSpeed="10.21" duration="69.60" routeLength="512.81" waitingTime="8.00" waitingCount="1" stopTime="0.00" timeLoss="26.67" rerouteNo="0" devices="tripinfo_flow2.10" vType="vtypeauto" speedFactor="0.94" vaporized=""/>
    <tripinfo id="flow4.12" depart="144.30" departLane="C0C1_0" departPos="4.10" departSpeed="0.00" departDelay="0.30" arrival="189.70" arrivalLane="C3C4_1" arrivalPos="72.80" arrivalSpeed="13.92" duration="45.40" routeLength="368.70" waitingTime="6.20" waitingCount="2" stopTime="0.00" timeLoss="18.98" rerouteNo="0" devices="tripinfo_flow4.12" vType="vtypeauto" speedFactor="1.01" vaporized=""/>
    <tripinfo id="flow3.3" depart="36.00" departLane="C0C1_0" departPos="4.10" departSpeed="0.00" departDelay="0.00" arrival="189.90" arrivalLane="D4E4_0" arrivalPos="76.80" arrivalSpeed="11.43" duration="153.90" routeLength="1052.87" waitingTime="24.10" waitingCount="6" stopTime="0.00" timeLoss="53.21" rerouteNo="0" devices="tripinfo_flow3.3" vType="vtypeauto" speedFactor="0.83" vaporized=""/>
    <tripinfo id="flow5.6" depart="72.00" departLane="E2D2_0" departPos="4.10" departSpeed="0.00" departDelay="0.00" arrival="190.80" arrivalLane="B1A1_0" arrivalPos="72.80" arrivalSpeed="12.39" duration="118.80" routeLength="606.12" waitingTime="46.50" waitingCount="5" stopTime="0.00" timeLoss="65.93" rerouteNo="0" devices="tripinfo_flow5.6" vType="vtypeauto" speedFactor="0.90" vaporized=""/>
    <tripinfo id="flow4.11" depart="132.50" departLane="C0C1_0" departPos="4.10" departSpeed="0.00" departDelay="0.50" arrival="191.10" arrivalLane="C3C4_0" arrivalPos="72.80" arrivalSpeed="13.85" duration="58.60" routeLength="368.70" waitingTime="13.80" waitingCount="2" stopTime="0.00" timeLoss="32.00" rerouteNo="0" devices="tripinfo_flow4.11" vType="vtypeauto" speedFactor="1.00" vaporized=""/>
    <tripinfo id="flow2.11" depart="132.00" departLane="A0A1_0" departPos="4.10" departSpeed="0.00" departDelay="0.00" arrival="192.30" arrivalLane="C3D3_0" arrivalPos="72.80" arrivalSpeed="15.00" duration="60.30" routeLength="512.81" waitingTime="4.80" waitingCount="2" stopTime="0.00" timeLoss="23.17" rerouteNo="0" devices="tripinfo_flow2.11" vType="vtypeauto" speedFactor="1.09" vaporized=""/>
    <tripinfo id="flow5.7" depart="84.00" departLane="E2D2_0" departPos="4.10" departSpeed="0.00" departDelay="0.00" arrival="192.40" arrivalLane="B1A1_0" arrivalPos="72.80" arrivalSpeed="13.89" duration="108.40" routeLength="606.12" waitingTime="20.10" waitingCount="4" stopTime="0.00" timeLoss="60.88" rerouteNo="0" devices="tripinfo_flow5.7" vType="vtypeauto" speedFactor="1.00" vaporized=""/>
    <tripinfo id="flow1.11" depart="132.00" departLane="A3B3_0" departPos="4.10" departSpeed="0.00" departDelay="0.00" arrival="196.70" arrivalLane="D3E3_0" arrivalPos="72.80" arrivalSpeed="13.91" duration="64.70" routeLength="368.70" waitingTime="21.70" waitingCount="3" stopTime="0.00" timeLoss="38.34" rerouteNo="0" devices="tripinfo_flow1.11" vType="vtypeauto" speedFactor="1.01" vaporized=""/>