<?xml version="1.0" encoding="UTF-8"?>

<!-- generated on 2024-10-29 14:09:04 by Eclipse SUMO sumo Version 1.20.0
<configuration xmlns:xsi="http://www.w3.org/2001/XMLSchema-instance" xsi:noNamespaceSchemaLocation="http://sumo.dlr.de/xsd/sumoConfiguration.xsd">

    <input>
        <net-file value="./sim_cfg_grid_3_lanes/grid.net.xml"/>
        <route-files value="./sim_cfg_grid_3_lanes/10x0.5.rou.xml"/>
    </input>

    <output>
        <tripinfo-output value="./sim_cfg_grid_3_lanes/tripinfo-platooning_0.576.xml"/>
    </output>

    <time>
        <begin value="0"/>
        <end value="500"/>
        <step-length value="0.1"/>
    </time>

    <traci_server>
        <remote-port value="49749"/>
    </traci_server>

    <gui_only>
        <gui-settings-file value="./sim_cfg_grid_3_lanes/gui_settings.xml"/>
    </gui_only>

</configuration>
-->

<tripinfos xmlns:xsi="http://www.w3.org/2001/XMLSchema-instance" xsi:noNamespaceSchemaLocation="http://sumo.dlr.de/xsd/tripinfo_file.xsd">
    <tripinfo id="flow9.1" depart="2.80" departLane="A2B2_0" departPos="4.10" departSpeed="0.00" departDelay="0.80" arrival="40.40" arrivalLane="D2E2_1" arrivalPos="72.80" arrivalSpeed="15.99" duration="37.60" routeLength="368.70" waitingTime="4.20" waitingCount="1" stopTime="0.00" timeLoss="14.66" rerouteNo="0" devices="tripinfo_flow9.1" vType="vtypeauto" speedFactor="1.16" vaporized=""/>
    <tripinfo id="flow9.3" depart="8.30" departLane="A2B2_0" departPos="4.10" departSpeed="0.00" departDelay="2.30" arrival="41.90" arrivalLane="D2E2_2" arrivalPos="72.80" arrivalSpeed="12.44" duration="33.60" routeLength="368.70" waitingTime="0.00" waitingCount="0" stopTime="0.00" timeLoss="4.10" rerouteNo="0" devices="tripinfo_flow9.3" vType="vtypeauto" speedFactor="0.90" vaporized=""/>
    <tripinfo id="flow9.0" depart="0.00" departLane="A2B2_0" departPos="4.10" departSpeed="0.00" departDelay="0.00" arrival="43.90" arrivalLane="D2E2_0" arrivalPos="72.80" arrivalSpeed="11.85" duration="43.90" routeLength="368.70" waitingTime="6.00" waitingCount="1" stopTime="0.00" timeLoss="12.84" rerouteNo="0" devices="tripinfo_flow9.0" vType="vtypeauto" speedFactor="0.86" vaporized=""/>
    <tripinfo id="flow9.2" depart="5.50" departLane="A2B2_0" departPos="4.10" departSpeed="0.00" departDelay="1.50" arrival="45.40" arrivalLane="D2E2_0" arrivalPos="72.80" arrivalSpeed="12.88" duration="39.90" routeLength="368.70" waitingTime="0.00" waitingCount="0" stopTime="0.00" timeLoss="11.39" rerouteNo="0" devices="tripinfo_flow9.2" vType="vtypeauto" speedFactor="0.93" vaporized=""/>
    <tripinfo id="flow9.4" depart="11.10" departLane="A2B2_0" departPos="4.10" departSpeed="0.00" departDelay="3.10" arrival="46.00" arrivalLane="D2E2_1" arrivalPos="72.80" arrivalSpeed="11.69" duration="34.90" routeLength="368.70" waitingTime="0.00" waitingCount="0" stopTime="0.00" timeLoss="3.63" rerouteNo="0" devices="tripinfo_flow9.4" vType="vtypeauto" speedFactor="0.85" vaporized=""/>
    <tripinfo id="flow9.5" depart="13.90" departLane="A2B2_0" departPos="4.10" departSpeed="0.00" departDelay="3.90" arrival="47.00" arrivalLane="D2E2_0" arrivalPos="72.80" arrivalSpeed="13.43" duration="33.10" routeLength="368.70" waitingTime="0.00" waitingCount="0" stopTime="0.00" timeLoss="5.65" rerouteNo="0" devices="tripinfo_flow9.5" vType="vtypeauto" speedFactor="0.97" vaporized=""/>
    <tripinfo id="flow9.6" depart="16.70" departLane="A2B2_0" departPos="4.10" departSpeed="0.00" departDelay="4.70" arrival="48.50" arrivalLane="D2E2_0" arrivalPos="72.80" arrivalSpeed="14.14" duration="31.80" routeLength="368.70" waitingTime="0.00" waitingCount="0" stopTime="0.00" timeLoss="5.76" rerouteNo="0" devices="tripinfo_flow9.6" vType="vtypeauto" speedFactor="1.02" vaporized=""/>
    <tripinfo id="flow9.7" depart="19.40" departLane="A2B2_0" departPos="4.10" departSpeed="0.00" departDelay="5.40" arrival="49.90" arrivalLane="D2E2_0" arrivalPos="72.80" arrivalSpeed="15.04" duration="30.50" routeLength="368.70" waitingTime="0.00" waitingCount="0" stopTime="0.00" timeLoss="6.05" rerouteNo="0" devices="tripinfo_flow9.7" vType="vtypeauto" speedFactor="1.09" vaporized=""/>
    <tripinfo id="flow9.8" depart="22.10" departLane="A2B2_0" departPos="4.10" departSpeed="0.00" departDelay="6.10" arrival="51.80" arrivalLane="D2E2_0" arrivalPos="72.80" arrivalSpeed="14.14" duration="29.70" routeLength="368.70" waitingTime="0.00" waitingCount="0" stopTime="0.00" timeLoss="3.71" rerouteNo="0" devices="tripinfo_flow9.8" vType="vtypeauto" speedFactor="1.02" vaporized=""/>
    <tripinfo id="flow9.9" depart="24.90" departLane="A2B2_0" departPos="4.10" departSpeed="0.00" departDelay="6.90" arrival="53.30" arrivalLane="D2E2_0" arrivalPos="72.80" arrivalSpeed="15.18" duration="28.40" routeLength="368.70" waitingTime="0.00" waitingCount="0" stopTime="0.00" timeLoss="4.19" rerouteNo="0" devices="tripinfo_flow9.9" vType="vtypeauto" speedFactor="1.10" vaporized=""/>
    <tripinfo id="flow6.0" depart="0.00" departLane="D4D3_0" departPos="4.10" departSpeed="0.00" departDelay="0.00" arrival="70.90" arrivalLane="D1D0_0" arrivalPos="72.80" arrivalSpeed="14.51" duration="70.90" routeLength="368.70" waitingTime="31.20" waitingCount="2" stopTime="0.00" timeLoss="45.52" rerouteNo="0" devices="tripinfo_flow6.0" vType="vtypeauto" speedFactor="1.05" vaporized=""/>
    <tripinfo id="flow6.2" depart="11.20" departLane="D4D3_0" departPos="4.10" departSpeed="0.00" departDelay="7.20" arrival="71.00" arrivalLane="D1D0_2" arrivalPos="72.80" arrivalSpeed="12.69" duration="59.80" routeLength="368.70" waitingTime="22.40" waitingCount="1" stopTime="0.00" timeLoss="30.79" rerouteNo="0" devices="tripinfo_flow6.2" vType="vtypeauto" speedFactor="0.92" vaporized=""/>
    <tripinfo id="flow6.1" depart="5.60" departLane="D4D3_0" departPos="4.10" departSpeed="0.00" departDelay="3.60" arrival="71.60" arrivalLane="D1D0_0" arrivalPos="72.80" arrivalSpeed="12.11" duration="66.00" routeLength="368.70" waitingTime="24.70" waitingCount="2" stopTime="0.00" timeLoss="35.74" rerouteNo="0" devices="tripinfo_flow6.1" vType="vtypeauto" speedFactor="0.88" vaporized=""/>
    <tripinfo id="flow6.4" depart="22.50" departLane="D4D3_0" departPos="4.10" departSpeed="0.00" departDelay="14.50" arrival="72.50" arrivalLane="D1D0_2" arrivalPos="72.80" arrivalSpeed="13.83" duration="50.00" routeLength="368.70" waitingTime="9.50" waitingCount="1" stopTime="0.00" timeLoss="23.35" rerouteNo="0" devices="tripinfo_flow6.4" vType="vtypeauto" speedFactor="1.00" vaporized=""/>
    <tripinfo id="flow6.3" depart="16.90" departLane="D4D3_0" departPos="4.10" departSpeed="0.00" departDelay="10.90" arrival="73.10" arrivalLane="D1D0_1" arrivalPos="72.80" arrivalSpeed="13.51" duration="56.20" routeLength="368.70" waitingTime="15.20" waitingCount="1" stopTime="0.00" timeLoss="28.85" rerouteNo="0" devices="tripinfo_flow6.3" vType="vtypeauto" speedFactor="0.97" vaporized=""/>
    <tripinfo id="flow6.6" depart="33.70" departLane="D4D3_0" departPos="4.10" departSpeed="0.00" departDelay="21.70" arrival="74.30" arrivalLane="D1D0_2" arrivalPos="72.80" arrivalSpeed="12.55" duration="40.60" routeLength="368.70" waitingTime="0.00" waitingCount="0" stopTime="0.00" timeLoss="11.30" rerouteNo="0" devices="tripinfo_flow6.6" vType="vtypeauto" speedFactor="0.91" vaporized=""/>
    <tripinfo id="flow6.5" depart="28.00" departLane="D4D3_0" departPos="4.10" departSpeed="0.00" departDelay="18.00" arrival="74.90" arrivalLane="D1D0_1" arrivalPos="72.80" arrivalSpeed="12.48" duration="46.90" routeLength="368.70" waitingTime="4.50" waitingCount="1" stopTime="0.00" timeLoss="17.28" rerouteNo="0" devices="tripinfo_flow6.5" vType="vtypeauto" speedFactor="0.90" vaporized=""/>
    <tripinfo id="flow4.0" depart="0.40" departLane="C0C1_0" departPos="4.10" departSpeed="0.00" departDelay="0.40" arrival="75.50" arrivalLane="C3C4_0" arrivalPos="72.80" arrivalSpeed="14.21" duration="75.10" routeLength="368.70" waitingTime="32.30" waitingCount="3" stopTime="0.00" timeLoss="49.27" rerouteNo="0" devices="tripinfo_flow4.0" vType="vtypeauto" speedFactor="1.03" vaporized=""/>
    <tripinfo id="flow4.1" depart="3.30" departLane="C0C1_0" departPos="4.10" departSpeed="0.00" departDelay="1.30" arrival="75.80" arrivalLane="C3C4_0" arrivalPos="72.80" arrivalSpeed="13.69" duration="72.50" routeLength="368.70" waitingTime="28.80" waitingCount="3" stopTime="0.00" timeLoss="45.66" rerouteNo="0" devices="tripinfo_flow4.1" vType="vtypeauto" speedFactor="0.99" vaporized=""/>
    <tripinfo id="flow4.3" depart="9.00" departLane="C0C1_0" departPos="4.10" departSpeed="0.00" departDelay="3.00" arrival="75.80" arrivalLane="C3C4_2" arrivalPos="72.80" arrivalSpeed="13.75" duration="66.80" routeLength="368.70" waitingTime="24.50" waitingCount="2" stopTime="0.00" timeLoss="40.07" rerouteNo="0" devices="tripinfo_flow4.3" vType="vtypeauto" speedFactor="0.99" vaporized=""/>
    <tripinfo id="flow6.7" depart="39.20" departLane="D4D3_0" departPos="4.10" departSpeed="0.00" departDelay="25.20" arrival="76.40" arrivalLane="D1D0_1" arrivalPos="72.80" arrivalSpeed="14.22" duration="37.20" routeLength="368.70" waitingTime="0.00" waitingCount="0" stopTime="0.00" timeLoss="11.41" rerouteNo="0" devices="tripinfo_flow6.7" vType="vtypeauto" speedFactor="1.03" vaporized=""/>
    <tripinfo id="flow4.5" depart="14.70" departLane="C0C1_0" departPos="4.10" departSpeed="0.00" departDelay="4.70" arrival="77.30" arrivalLane="C3C4_1" arrivalPos="72.80" arrivalSpeed="13.87" duration="62.60" routeLength="368.70" waitingTime="14.80" waitingCount="2" stopTime="0.00" timeLoss="36.10" rerouteNo="0" devices="tripinfo_flow4.5" vType="vtypeauto" speedFactor="1.00" vaporized=""/>
    <tripinfo id="flow6.8" depart="44.80" departLane="D4D3_0" departPos="4.10" departSpeed="0.00" departDelay="28.80" arrival="77.90" arrivalLane="D1D0_1" arrivalPos="72.80" arrivalSpeed="13.89" duration="33.10" routeLength="368.70" waitingTime="0.00" waitingCount="0" stopTime="0.00" timeLoss="6.55" rerouteNo="0" devices="tripinfo_flow6.8" vType="vtypeauto" speedFactor="1.00" vaporized=""/>
    <tripinfo id="flow4.2" depart="6.10" departLane="C0C1_0" departPos="4.10" departSpeed="0.00" departDelay="2.10" arrival="78.20" arrivalLane="C3C4_0" arrivalPos="72.80" arrivalSpeed="11.45" duration="72.10" routeLength="368.70" waitingTime="16.30" waitingCount="2" stopTime="0.00" timeLoss="39.87" rerouteNo="0" devices="tripinfo_flow4.2" vType="vtypeauto" speedFactor="0.83" vaporized=""/>
    <tripinfo id="flow1.3" depart="8.40" departLane="A3B3_0" departPos="4.10" departSpeed="0.00" departDelay="2.40" arrival="79.30" arrivalLane="D3E3_2" arrivalPos="72.80" arrivalSpeed="15.98" duration="70.90" routeLength="368.70" waitingTime="36.50" waitingCount="1" stopTime="0.00" timeLoss="47.82" rerouteNo="0" devices="tripinfo_flow1.3" vType="vtypeauto" speedFactor="1.15" vaporized=""/>
    <tripinfo id="flow1.1" depart="2.80" departLane="A3B3_0" departPos="4.10" departSpeed="0.00" departDelay="0.80" arrival="80.30" arrivalLane="D3E3_1" arrivalPos="72.80" arrivalSpeed="14.15" duration="77.50" routeLength="368.70" waitingTime="37.80" waitingCount="2" stopTime="0.00" timeLoss="51.57" rerouteNo="0" devices="tripinfo_flow1.1" vType="vtypeauto" speedFactor="1.03" vaporized=""/>
    <tripinfo id="flow1.0" depart="0.00" departLane="A3B3_0" departPos="4.10" departSpeed="0.00" departDelay="0.00" arrival="80.60" arrivalLane="D3E3_0" arrivalPos="72.80" arrivalSpeed="12.93" duration="80.60" routeLength="368.70" waitingTime="40.20" waitingCount="2" stopTime="0.00" timeLoss="52.23" rerouteNo="0" devices="tripinfo_flow1.0" vType="vtypeauto" speedFactor="0.94" vaporized=""/>
    <tripinfo id="flow6.9" depart="50.30" departLane="D4D3_0" departPos="4.10" departSpeed="0.00" departDelay="32.30" arrival="80.70" arrivalLane="D1D0_1" arrivalPos="72.80" arrivalSpeed="14.01" duration="30.40" routeLength="368.70" waitingTime="0.00" waitingCount="0" stopTime="0.00" timeLoss="4.03" rerouteNo="0" devices="tripinfo_flow6.9" vType="vtypeauto" speedFactor="1.01" vaporized=""/>
    <tripinfo id="flow1.4" depart="11.20" departLane="A3B3_0" departPos="4.10" departSpeed="0.00" departDelay="3.20" arrival="81.30" arrivalLane="D3E3_2" arrivalPos="72.80" arrivalSpeed="13.27" duration="70.10" routeLength="368.70" waitingTime="29.80" waitingCount="1" stopTime="0.00" timeLoss="42.36" rerouteNo="0" devices="tripinfo_flow1.4" vType="vtypeauto" speedFactor="0.96" vaporized=""/>
    <tripinfo id="flow1.2" depart="5.60" departLane="A3B3_0" departPos="4.10" departSpeed="0.00" departDelay="1.60" arrival="81.70" arrivalLane="D3E3_0" arrivalPos="72.80" arrivalSpeed="13.97" duration="76.10" routeLength="368.70" waitingTime="29.10" waitingCount="1" stopTime="0.00" timeLoss="49.75" rerouteNo="0" devices="tripinfo_flow1.2" vType="vtypeauto@flow1.2" speedFactor="1.01" vaporized=""/>
    <tripinfo id="flow1.5" depart="13.90" departLane="A3B3_0" departPos="4.10" departSpeed="0.00" departDelay="3.90" arrival="81.80" arrivalLane="D3E3_1" arrivalPos="72.80" arrivalSpeed="13.97" duration="67.90" routeLength="368.70" waitingTime="28.90" waitingCount="1" stopTime="0.00" timeLoss="44.09" rerouteNo="0" devices="tripinfo_flow1.5" vType="vtypeauto@flow1.5" speedFactor="1.01" vaporized=""/>
    <tripinfo id="flow1.6" depart="16.60" departLane="A3B3_0" departPos="4.10" departSpeed="0.00" departDelay="4.60" arrival="82.80" arrivalLane="D3E3_0" arrivalPos="72.80" arrivalSpeed="13.92" duration="66.20" routeLength="368.70" waitingTime="26.70" waitingCount="1" stopTime="0.00" timeLoss="41.63" rerouteNo="0" devices="tripinfo_flow1.6" vType="vtypeauto@flow1.6" speedFactor="1.01" vaporized=""/>
    <tripinfo id="flow1.12" depart="33.40" departLane="A3B3_0" departPos="4.10" departSpeed="0.00" departDelay="9.40" arrival="82.80" arrivalLane="D3E3_2" arrivalPos="72.80" arrivalSpeed="15.27" duration="49.40" routeLength="368.70" waitingTime="5.20" waitingCount="2" stopTime="0.00" timeLoss="25.29" rerouteNo="0" devices="tripinfo_flow1.12" vType="vtypeauto" speedFactor="1.10" vaporized=""/>
    <tripinfo id="flow1.7" depart="19.40" departLane="A3B3_0" departPos="4.10" departSpeed="0.00" departDelay="5.40" arrival="82.90" arrivalLane="D3E3_1" arrivalPos="72.80" arrivalSpeed="13.92" duration="63.50" routeLength="368.70" waitingTime="22.70" waitingCount="1" stopTime="0.00" timeLoss="36.49" rerouteNo="0" devices="tripinfo_flow1.7" vType="vtypeauto@flow1.7" speedFactor="1.01" vaporized=""/>
    <tripinfo id="flow1.8" depart="22.20" departLane="A3B3_0" departPos="4.10" departSpeed="0.00" departDelay="6.20" arrival="83.90" arrivalLane="D3E3_0" arrivalPos="72.80" arrivalSpeed="13.96" duration="61.70" routeLength="368.70" waitingTime="21.40" waitingCount="1" stopTime="0.00" timeLoss="35.16" rerouteNo="0" devices="tripinfo_flow1.8" vType="vtypeauto@flow1.8" speedFactor="1.01" vaporized=""/>
    <tripinfo id="flow1.10" depart="27.80" departLane="A3B3_0" departPos="4.10" departSpeed="0.00" departDelay="7.80" arrival="84.00" arrivalLane="D3E3_1" arrivalPos="72.80" arrivalSpeed="13.88" duration="56.20" routeLength="368.70" waitingTime="10.70" waitingCount="2" stopTime="0.00" timeLoss="28.92" rerouteNo="0" devices="tripinfo_flow1.10" vType="vtypeauto@flow1.10" speedFactor="1.01" vaporized=""/>
    <tripinfo id="flow1.13" depart="36.20" departLane="A3B3_0" departPos="4.10" departSpeed="0.00" departDelay="10.20" arrival="84.30" arrivalLane="D3E3_2" arrivalPos="72.80" arrivalSpeed="14.77" duration="48.10" routeLength="368.70" waitingTime="2.90" waitingCount="1" stopTime="0.00" timeLoss="23.17" rerouteNo="0" devices="tripinfo_flow1.13" vType="vtypeauto" speedFactor="1.07" vaporized=""/>
    <tripinfo id="flow1.9" depart="25.00" departLane="A3B3_0" departPos="4.10" departSpeed="0.00" departDelay="7.00" arrival="85.00" arrivalLane="D3E3_0" arrivalPos="72.80" arrivalSpeed="13.96" duration="60.00" routeLength="368.70" waitingTime="13.90" waitingCount="2" stopTime="0.00" timeLoss="31.46" rerouteNo="0" devices="tripinfo_flow1.9" vType="vtypeauto@flow1.9" speedFactor="1.01" vaporized=""/>
    <tripinfo id="flow1.15" depart="41.70" departLane="A3B3_0" departPos="4.10" departSpeed="0.00" departDelay="11.70" arrival="85.20" arrivalLane="D3E3_1" arrivalPos="72.80" arrivalSpeed="13.92" duration="43.50" routeLength="368.70" waitingTime="1.50" waitingCount="1" stopTime="0.00" timeLoss="17.03" rerouteNo="0" devices="tripinfo_flow1.15" vType="vtypeauto@flow1.15" speedFactor="1.01" vaporized=""/>
    <tripinfo id="flow1.14" depart="38.90" departLane="A3B3_0" departPos="4.10" departSpeed="0.00" departDelay="10.90" arrival="85.70" arrivalLane="D3E3_2" arrivalPos="72.80" arrivalSpeed="16.16" duration="46.80" routeLength="368.70" waitingTime="0.80" waitingCount="1" stopTime="0.00" timeLoss="23.93" rerouteNo="0" devices="tripinfo_flow1.14" vType="vtypeauto" speedFactor="1.16" vaporized=""/>
    <tripinfo id="flow1.11" depart="30.60" departLane="A3B3_0" departPos="4.10" departSpeed="0.00" departDelay="8.60" arrival="86.20" arrivalLane="D3E3_0" arrivalPos="72.80" arrivalSpeed="13.93" duration="55.60" routeLength="368.70" waitingTime="3.40" waitingCount="1" stopTime="0.00" timeLoss="26.51" rerouteNo="0" devices="tripinfo_flow1.11" vType="vtypeauto@flow1.11" speedFactor="1.01" vaporized=""/>
    <tripinfo id="flow1.16" depart="44.50" departLane="A3B3_0" departPos="4.10" departSpeed="0.00" departDelay="12.50" arrival="86.60" arrivalLane="D3E3_1" arrivalPos="72.80" arrivalSpeed="14.92" duration="42.10" routeLength="368.70" waitingTime="0.00" waitingCount="0" stopTime="0.00" timeLoss="17.38" rerouteNo="0" devices="tripinfo_flow1.16" vType="vtypeauto" speedFactor="1.08" vaporized=""/>
    <tripinfo id="flow9.11" depart="30.50" departLane="A2B2_0" departPos="4.10" departSpeed="0.00" departDelay="8.50" arrival="87.50" arrivalLane="D2E2_1" arrivalPos="72.80" arrivalSpeed="14.75" duration="57.00" routeLength="368.70" waitingTime="18.60" waitingCount="2" stopTime="0.00" timeLoss="32.14" rerouteNo="0" devices="tripinfo_flow9.11" vType="vtypeauto" speedFactor="1.07" vaporized=""/>
    <tripinfo id="flow9.10" depart="27.70" departLane="A2B2_0" departPos="4.10" departSpeed="0.00" departDelay="7.70" arrival="87.90" arrivalLane="D2E2_0" arrivalPos="72.80" arrivalSpeed="13.30" duration="60.20" routeLength="368.70" waitingTime="20.60" waitingCount="2" stopTime="0.00" timeLoss="32.52" rerouteNo="0" devices="tripinfo_flow9.10" vType="vtypeauto" speedFactor="0.96" vaporized=""/>
    <tripinfo id="flow6.10" depart="55.90" departLane="D4D3_0" departPos="4.10" departSpeed="0.00" departDelay="35.90" arrival="88.20" arrivalLane="D1D0_1" arrivalPos="72.80" arrivalSpeed="14.01" duration="32.30" routeLength="368.70" waitingTime="0.00" waitingCount="0" stopTime="0.00" timeLoss="6.10" rerouteNo="0" devices="tripinfo_flow6.10" vType="vtypeauto" speedFactor="1.01" vaporized=""/>
    <tripinfo id="flow4.4" depart="11.80" departLane="C0C1_0" departPos="4.10" departSpeed="0.00" departDelay="3.80" arrival="88.60" arrivalLane="C3C4_0" arrivalPos="72.80" arrivalSpeed="14.49" duration="76.80" routeLength="368.70" waitingTime="30.90" waitingCount="2" stopTime="0.00" timeLoss="51.35" rerouteNo="0" devices="tripinfo_flow4.4" vType="vtypeauto" speedFactor="1.04" vaporized=""/>
    <tripinfo id="flow9.15" depart="41.50" departLane="A2B2_0" departPos="4.10" departSpeed="0.00" departDelay="11.50" arrival="88.90" arrivalLane="D2E2_1" arrivalPos="72.80" arrivalSpeed="15.85" duration="47.40" routeLength="368.70" waitingTime="8.30" waitingCount="1" stopTime="0.00" timeLoss="24.10" rerouteNo="0" devices="tripinfo_flow9.15" vType="vtypeauto" speedFactor="1.14" vaporized=""/>
    <tripinfo id="flow9.12" depart="33.30" departLane="A2B2_0" departPos="4.10" departSpeed="0.00" departDelay="9.30" arrival="89.40" arrivalLane="D2E2_0" arrivalPos="72.80" arrivalSpeed="13.90" duration="56.10" routeLength="368.70" waitingTime="8.40" waitingCount="2" stopTime="0.00" timeLoss="29.77" rerouteNo="0" devices="tripinfo_flow9.12" vType="vtypeauto" speedFactor="1.01" vaporized=""/>
    <tripinfo id="flow9.13" depart="36.00" departLane="A2B2_0" departPos="4.10" departSpeed="0.00" departDelay="10.00" arrival="89.90" arrivalLane="D2E2_2" arrivalPos="72.80" arrivalSpeed="1.02" duration="53.90" routeLength="368.70" waitingTime="14.40" waitingCount="1" stopTime="0.00" timeLoss="26.07" rerouteNo="0" devices="tripinfo_flow9.13" vType="vtypeauto" speedFactor="0.95" vaporized=""/>
    <tripinfo id="flow9.17" depart="47.10" departLane="A2B2_0" departPos="4.10" departSpeed="0.00" departDelay="13.10" arrival="90.40" arrivalLane="D2E2_1" arrivalPos="72.80" arrivalSpeed="14.73" duration="43.30" routeLength="368.70" waitingTime="3.70" waitingCount="1" stopTime="0.00" timeLoss="18.34" rerouteNo="0" devices="tripinfo_flow9.17" vType="vtypeauto" speedFactor="1.06" vaporized=""/>
    <tripinfo id="flow9.16" depart="44.30" departLane="A2B2_0" departPos="4.10" departSpeed="0.00" departDelay="12.30" arrival="91.10" arrivalLane="D2E2_0" arrivalPos="72.80" arrivalSpeed="13.03" duration="46.80" routeLength="368.70" waitingTime="5.70" waitingCount="1" stopTime="0.00" timeLoss="18.52" rerouteNo="0" devices="tripinfo_flow9.16" vType="vtypeauto" speedFactor="0.94" vaporized=""/>
    <tripinfo id="flow9.18" depart="49.90" departLane="A2B2_0" departPos="4.10" departSpeed="0.00" departDelay="13.90" arrival="92.60" arrivalLane="D2E2_0" arrivalPos="72.80" arrivalSpeed="13.46" duration="42.70" routeLength="368.70" waitingTime="2.10" waitingCount="1" stopTime="0.00" timeLoss="15.37" rerouteNo="0" devices="tripinfo_flow9.18" vType="vtypeauto" speedFactor="0.97" vaporized=""/>
    <tripinfo id="flow9.14" depart="38.80" departLane="A2B2_0" departPos="4.10" departSpeed="0.00" departDelay="10.80" arrival="93.40" arrivalLane="D2E2_2" arrivalPos="72.80" arrivalSpeed="0.92" duration="54.60" routeLength="368.70" waitingTime="10.00" waitingCount="1" stopTime="0.00" timeLoss="29.08" rerouteNo="0" devices="tripinfo_flow9.14" vType="vtypeauto" speedFactor="1.04" vaporized=""/>
    <tripinfo id="flow8.0" depart="2.80" departLane="D4D3_0" departPos="4.10" departSpeed="0.00" departDelay="2.80" arrival="130.80" arrivalLane="B1A1_0" arrivalPos="72.80" arrivalSpeed="13.97" duration="128.00" routeLength="550.53" waitingTime="59.90" waitingCount="3" stopTime="0.00" timeLoss="87.11" rerouteNo="0" devices="tripinfo_flow8.0" vType="vtypeauto@flow8.0" speedFactor="1.01" vaporized=""/>
    <tripinfo id="flow8.1" depart="8.40" departLane="D4D3_0" departPos="4.10" departSpeed="0.00" departDelay="6.40" arrival="130.90" arrivalLane="B1A1_2" arrivalPos="72.80" arrivalSpeed="13.99" duration="122.50" routeLength="550.53" waitingTime="54.80" waitingCount="2" stopTime="0.00" timeLoss="81.55" rerouteNo="0" devices="tripinfo_flow8.1" vType="vtypeauto@flow8.1" speedFactor="1.01" vaporized=""/>
    <tripinfo id="flow8.2" depart="14.10" departLane="D4D3_0" departPos="4.10" departSpeed="0.00" departDelay="10.10" arrival="132.00" arrivalLane="B1A1_1" arrivalPos="72.80" arrivalSpeed="13.98" duration="117.90" routeLength="550.53" waitingTime="48.80" waitingCount="2" stopTime="0.00" timeLoss="79.00" rerouteNo="0" devices="tripinfo_flow8.2" vType="vtypeauto@flow8.2" speedFactor="1.01" vaporized=""/>
    <tripinfo id="flow8.4" depart="25.20" departLane="D4D3_0" departPos="4.10" departSpeed="0.00" departDelay="17.20" arrival="132.20" arrivalLane="B1A1_2" arrivalPos="72.80" arrivalSpeed="13.97" duration="107.00" routeLength="550.53" waitingTime="38.40" waitingCount="2" stopTime="0.00" timeLoss="65.56" rerouteNo="0" devices="tripinfo_flow8.4" vType="vtypeauto@flow8.4" speedFactor="1.01" vaporized=""/>
    <tripinfo id="flow8.3" depart="19.70" departLane="D4D3_0" departPos="4.10" departSpeed="0.00" departDelay="13.70" arrival="133.30" arrivalLane="B1A1_1" arrivalPos="72.80" arrivalSpeed="14.00" duration="113.60" routeLength="550.53" waitingTime="44.50" waitingCount="2" stopTime="0.00" timeLoss="74.36" rerouteNo="0" devices="tripinfo_flow8.3" vType="vtypeauto@flow8.3" speedFactor="1.01" vaporized=""/>
    <tripinfo id="flow6.11" depart="61.40" departLane="D4D3_0" departPos="4.10" departSpeed="0.00" departDelay="39.40" arrival="133.30" arrivalLane="D1D0_0" arrivalPos="72.80" arrivalSpeed="16.25" duration="71.90" routeLength="368.70" waitingTime="35.00" waitingCount="2" stopTime="0.00" timeLoss="49.35" rerouteNo="0" devices="tripinfo_flow6.11" vType="vtypeauto" speedFactor="1.18" vaporized=""/>
    <tripinfo id="flow6.12" depart="66.80" departLane="D4D3_0" departPos="4.10" departSpeed="0.00" departDelay="42.80" arrival="133.60" arrivalLane="D1D0_1" arrivalPos="72.80" arrivalSpeed="14.24" duration="66.80" routeLength="368.70" waitingTime="28.00" waitingCount="2" stopTime="0.00" timeLoss="41.06" rerouteNo="0" devices="tripinfo_flow6.12" vType="vtypeauto" speedFactor="1.03" vaporized=""/>
    <tripinfo id="flow8.5" depart="30.80" departLane="D4D3_0" departPos="4.10" departSpeed="0.00" departDelay="20.80" arrival="133.70" arrivalLane="B1A1_0" arrivalPos="72.80" arrivalSpeed="13.93" duration="102.90" routeLength="550.53" waitingTime="33.70" waitingCount="2" stopTime="0.00" timeLoss="62.96" rerouteNo="0" devices="tripinfo_flow8.5" vType="vtypeauto@flow8.5" speedFactor="1.01" vaporized=""/>
    <tripinfo id="flow8.6" depart="36.50" departLane="D4D3_0" departPos="4.10" departSpeed="0.00" departDelay="24.50" arrival="133.70" arrivalLane="B1A1_2" arrivalPos="72.80" arrivalSpeed="14.42" duration="97.20" routeLength="550.53" waitingTime="26.30" waitingCount="1" stopTime="0.00" timeLoss="58.37" rerouteNo="0" devices="tripinfo_flow8.6" vType="vtypeauto" speedFactor="1.04" vaporized=""/>
    <tripinfo id="flow8.7" depart="42.00" departLane="D4D3_0" departPos="4.10" departSpeed="0.00" departDelay="28.00" arrival="134.90" arrivalLane="B1A1_1" arrivalPos="72.80" arrivalSpeed="13.95" duration="92.90" routeLength="550.53" waitingTime="25.20" waitingCount="1" stopTime="0.00" timeLoss="52.78" rerouteNo="0" devices="tripinfo_flow8.7" vType="vtypeauto" speedFactor="1.01" vaporized=""/>
    <tripinfo id="flow6.13" depart="72.30" departLane="D4D3_0" departPos="4.10" departSpeed="0.00" departDelay="46.30" arrival="135.10" arrivalLane="D1D0_1" arrivalPos="72.80" arrivalSpeed="15.45" duration="62.80" routeLength="368.70" waitingTime="18.90" waitingCount="1" stopTime="0.00" timeLoss="39.00" rerouteNo="0" devices="tripinfo_flow6.13" vType="vtypeauto" speedFactor="1.12" vaporized=""/>
    <tripinfo id="flow8.9" depart="53.10" departLane="D4D3_0" departPos="4.10" departSpeed="0.00" departDelay="35.10" arrival="135.20" arrivalLane="B1A1_2" arrivalPos="72.80" arrivalSpeed="15.56" duration="82.10" routeLength="550.53" waitingTime="21.30" waitingCount="1" stopTime="0.00" timeLoss="46.00" rerouteNo="0" devices="tripinfo_flow8.9" vType="vtypeauto" speedFactor="1.12" vaporized=""/>
    <tripinfo id="flow8.8" depart="47.60" departLane="D4D3_0" departPos="4.10" departSpeed="0.00" departDelay="31.60" arrival="135.60" arrivalLane="B1A1_0" arrivalPos="72.80" arrivalSpeed="13.93" duration="88.00" routeLength="550.53" waitingTime="23.40" waitingCount="1" stopTime="0.00" timeLoss="47.87" rerouteNo="0" devices="tripinfo_flow8.8" vType="vtypeauto" speedFactor="1.01" vaporized=""/>
    <tripinfo id="flow6.14" depart="77.80" departLane="D4D3_0" departPos="4.10" departSpeed="0.00" departDelay="49.80" arrival="135.60" arrivalLane="D1D0_2" arrivalPos="72.80" arrivalSpeed="12.25" duration="57.80" routeLength="368.70" waitingTime="16.40" waitingCount="1" stopTime="0.00" timeLoss="27.83" rerouteNo="0" devices="tripinfo_flow6.14" vType="vtypeauto" speedFactor="0.89" vaporized=""/>
    <tripinfo id="flow6.15" depart="83.40" departLane="D4D3_0" departPos="4.10" departSpeed="0.00" departDelay="53.40" arrival="136.40" arrivalLane="D1D0_1" arrivalPos="72.80" arrivalSpeed="16.28" duration="53.00" routeLength="368.70" waitingTime="15.60" waitingCount="1" stopTime="0.00" timeLoss="30.47" rerouteNo="0" devices="tripinfo_flow6.15" vType="vtypeauto" speedFactor="1.18" vaporized=""/>
    <tripinfo id="flow2.3" depart="8.30" departLane="A0A1_0" departPos="4.10" departSpeed="0.00" departDelay="2.30" arrival="143.30" arrivalLane="C3D3_1" arrivalPos="72.80" arrivalSpeed="12.98" duration="135.00" routeLength="512.81" waitingTime="43.30" waitingCount="4" stopTime="0.00" timeLoss="94.92" rerouteNo="0" devices="tripinfo_flow2.3" vType="vtypeauto" speedFactor="1.01" vaporized=""/>
    <tripinfo id="flow2.1" depart="2.80" departLane="A0A1_0" departPos="4.10" departSpeed="0.00" departDelay="0.80" arrival="144.10" arrivalLane="C3D3_0" arrivalPos="72.80" arrivalSpeed="13.16" duration="141.30" routeLength="512.81" waitingTime="49.80" waitingCount="5" stopTime="0.00" timeLoss="102.71" rerouteNo="0" devices="tripinfo_flow2.1" vType="vtypeauto" speedFactor="1.05" vaporized=""/>
    <tripinfo id="flow2.5" depart="13.80" departLane="A0A1_0" departPos="4.10" departSpeed="0.00" departDelay="3.80" arrival="144.70" arrivalLane="C3D3_1" arrivalPos="72.80" arrivalSpeed="14.01" duration="130.90" routeLength="512.81" waitingTime="42.60" waitingCount="6" stopTime="0.00" timeLoss="91.28" rerouteNo="0" devices="tripinfo_flow2.5" vType="vtypeauto" speedFactor="1.02" vaporized=""/>
    <tripinfo id="flow1.22" depart="61.20" departLane="A3B3_0" departPos="4.10" departSpeed="0.00" departDelay="17.20" arrival="145.40" arrivalLane="D3E3_1" arrivalPos="72.80" arrivalSpeed="15.93" duration="84.20" routeLength="368.70" waitingTime="41.80" waitingCount="3" stopTime="0.00" timeLoss="61.04" rerouteNo="0" devices="tripinfo_flow1.22" vType="vtypeauto" speedFactor="1.15" vaporized=""/>