<?xml version="1.0" encoding="UTF-8"?>

<!-- generated on 2024-10-22 18:25:23 by Eclipse SUMO sumo Version 1.20.0
<configuration xmlns:xsi="http://www.w3.org/2001/XMLSchema-instance" xsi:noNamespaceSchemaLocation="http://sumo.dlr.de/xsd/sumoConfiguration.xsd">

    <input>
        <net-file value="sim_cfg_grid_3_lanes/grid.net.xml"/>
        <route-files value="sim_cfg_grid_3_lanes/grid.rou.xml"/>
    </input>

    <output>
        <tripinfo-output value="sim_cfg_grid_3_lanes/tripinfo2.xml"/>
    </output>

    <time>
        <begin value="0"/>
        <end value="500"/>
        <step-length value="0.1"/>
    </time>

    <traci_server>
        <remote-port value="49802"/>
    </traci_server>

    <gui_only>
        <gui-settings-file value="sim_cfg_grid_3_lanes/gui_settings.xml"/>
    </gui_only>

</configuration>
-->

<tripinfos xmlns:xsi="http://www.w3.org/2001/XMLSchema-instance" xsi:noNamespaceSchemaLocation="http://sumo.dlr.de/xsd/tripinfo_file.xsd">
    <tripinfo id="flow4.0" depart="0.40" departLane="C0C1_0" departPos="4.10" departSpeed="0.00" departDelay="0.40" arrival="49.70" arrivalLane="C3C4_0" arrivalPos="72.80" arrivalSpeed="14.26" duration="49.30" routeLength="368.70" waitingTime="10.90" waitingCount="2" stopTime="0.00" timeLoss="23.46" rerouteNo="0" devices="tripinfo_flow4.0" vType="vtypeauto" speedFactor="1.03" vaporized=""/>
    <tripinfo id="flow4.1" depart="3.30" departLane="C0C1_0" departPos="4.10" departSpeed="0.00" departDelay="2.30" arrival="49.70" arrivalLane="C3C4_1" arrivalPos="72.80" arrivalSpeed="14.25" duration="46.40" routeLength="368.70" waitingTime="7.70" waitingCount="2" stopTime="0.00" timeLoss="20.47" rerouteNo="0" devices="tripinfo_flow4.1" vType="vtypeauto" speedFactor="1.03" vaporized=""/>
    <tripinfo id="flow4.4" depart="11.90" departLane="C0C1_0" departPos="4.10" departSpeed="0.00" departDelay="7.90" arrival="51.40" arrivalLane="C3C4_1" arrivalPos="72.80" arrivalSpeed="13.85" duration="39.50" routeLength="368.70" waitingTime="0.00" waitingCount="0" stopTime="0.00" timeLoss="13.02" rerouteNo="0" devices="tripinfo_flow4.4" vType="vtypeauto" speedFactor="1.01" vaporized=""/>
    <tripinfo id="flow4.3" depart="9.00" departLane="C0C1_0" departPos="4.10" departSpeed="0.00" departDelay="6.00" arrival="51.60" arrivalLane="C3C4_2" arrivalPos="72.80" arrivalSpeed="12.03" duration="42.60" routeLength="368.70" waitingTime="2.50" waitingCount="1" stopTime="0.00" timeLoss="12.10" rerouteNo="0" devices="tripinfo_flow4.3" vType="vtypeauto" speedFactor="0.87" vaporized=""/>
    <tripinfo id="flow4.2" depart="6.10" departLane="C0C1_0" departPos="4.10" departSpeed="0.00" departDelay="4.10" arrival="52.20" arrivalLane="C3C4_0" arrivalPos="72.80" arrivalSpeed="12.99" duration="46.10" routeLength="368.70" waitingTime="0.00" waitingCount="0" stopTime="0.00" timeLoss="17.68" rerouteNo="0" devices="tripinfo_flow4.2" vType="vtypeauto" speedFactor="0.94" vaporized=""/>
    <tripinfo id="flow4.7" depart="20.70" departLane="C0C1_0" departPos="4.10" departSpeed="0.00" departDelay="13.70" arrival="52.90" arrivalLane="C3C4_1" arrivalPos="72.80" arrivalSpeed="15.22" duration="32.20" routeLength="368.70" waitingTime="0.00" waitingCount="0" stopTime="0.00" timeLoss="7.89" rerouteNo="0" devices="tripinfo_flow4.7" vType="vtypeauto" speedFactor="1.10" vaporized=""/>
    <tripinfo id="flow4.6" depart="17.80" departLane="C0C1_0" departPos="4.10" departSpeed="0.00" departDelay="11.80" arrival="53.10" arrivalLane="C3C4_2" arrivalPos="72.80" arrivalSpeed="13.74" duration="35.30" routeLength="368.70" waitingTime="0.00" waitingCount="0" stopTime="0.00" timeLoss="8.64" rerouteNo="0" devices="tripinfo_flow4.6" vType="vtypeauto" speedFactor="1.00" vaporized=""/>
    <tripinfo id="flow4.5" depart="14.80" departLane="C0C1_0" departPos="4.10" departSpeed="0.00" departDelay="9.80" arrival="54.20" arrivalLane="C3C4_0" arrivalPos="72.80" arrivalSpeed="12.51" duration="39.40" routeLength="368.70" waitingTime="0.00" waitingCount="0" stopTime="0.00" timeLoss="9.86" rerouteNo="0" devices="tripinfo_flow4.5" vType="vtypeauto" speedFactor="0.90" vaporized=""/>
    <tripinfo id="flow4.8" depart="23.60" departLane="C0C1_0" departPos="4.10" departSpeed="0.00" departDelay="15.60" arrival="55.70" arrivalLane="C3C4_0" arrivalPos="72.80" arrivalSpeed="14.91" duration="32.10" routeLength="368.70" waitingTime="0.00" waitingCount="0" stopTime="0.00" timeLoss="7.51" rerouteNo="0" devices="tripinfo_flow4.8" vType="vtypeauto" speedFactor="1.08" vaporized=""/>
    <tripinfo id="flow1.0" depart="0.00" departLane="A3B3_0" departPos="4.10" departSpeed="0.00" departDelay="0.00" arrival="79.90" arrivalLane="D3E3_0" arrivalPos="72.80" arrivalSpeed="12.91" duration="79.90" routeLength="368.70" waitingTime="40.10" waitingCount="2" stopTime="0.00" timeLoss="51.60" rerouteNo="0" devices="tripinfo_flow1.0" vType="vtypeauto" speedFactor="0.94" vaporized=""/>
    <tripinfo id="flow1.3" depart="8.40" departLane="A3B3_0" departPos="4.10" departSpeed="0.00" departDelay="5.40" arrival="79.90" arrivalLane="D3E3_2" arrivalPos="72.80" arrivalSpeed="13.47" duration="71.50" routeLength="368.70" waitingTime="35.50" waitingCount="1" stopTime="0.00" timeLoss="44.21" rerouteNo="0" devices="tripinfo_flow1.3" vType="vtypeauto" speedFactor="0.97" vaporized=""/>
    <tripinfo id="flow1.1" depart="2.80" departLane="A3B3_0" departPos="4.10" departSpeed="0.00" departDelay="1.80" arrival="80.00" arrivalLane="D3E3_1" arrivalPos="72.80" arrivalSpeed="12.95" duration="77.20" routeLength="368.70" waitingTime="36.90" waitingCount="2" stopTime="0.00" timeLoss="48.88" rerouteNo="0" devices="tripinfo_flow1.1" vType="vtypeauto" speedFactor="0.94" vaporized=""/>
    <tripinfo id="flow2.0" depart="0.00" departLane="A0A1_0" departPos="4.10" departSpeed="0.00" departDelay="0.00" arrival="81.30" arrivalLane="C3D3_1" arrivalPos="72.80" arrivalSpeed="12.59" duration="81.30" routeLength="512.81" waitingTime="22.10" waitingCount="2" stopTime="0.00" timeLoss="41.43" rerouteNo="0" devices="tripinfo_flow2.0" vType="vtypeauto" speedFactor="1.01" vaporized=""/>
    <tripinfo id="flow1.2" depart="5.60" departLane="A3B3_0" departPos="4.10" departSpeed="0.00" departDelay="3.60" arrival="81.50" arrivalLane="D3E3_0" arrivalPos="72.80" arrivalSpeed="12.78" duration="75.90" routeLength="368.70" waitingTime="29.00" waitingCount="1" stopTime="0.00" timeLoss="47.25" rerouteNo="0" devices="tripinfo_flow1.2" vType="vtypeauto" speedFactor="0.93" vaporized=""/>
    <tripinfo id="flow1.4" depart="11.20" departLane="A3B3_0" departPos="4.10" departSpeed="0.00" departDelay="7.20" arrival="81.50" arrivalLane="D3E3_2" arrivalPos="72.80" arrivalSpeed="12.90" duration="70.30" routeLength="368.70" waitingTime="29.30" waitingCount="1" stopTime="0.00" timeLoss="41.78" rerouteNo="0" devices="tripinfo_flow1.4" vType="vtypeauto" speedFactor="0.93" vaporized=""/>
    <tripinfo id="flow1.5" depart="14.00" departLane="A3B3_0" departPos="4.10" departSpeed="0.00" departDelay="9.00" arrival="81.60" arrivalLane="D3E3_1" arrivalPos="72.80" arrivalSpeed="13.43" duration="67.60" routeLength="368.70" waitingTime="26.70" waitingCount="1" stopTime="0.00" timeLoss="40.24" rerouteNo="0" devices="tripinfo_flow1.5" vType="vtypeauto" speedFactor="0.97" vaporized=""/>
    <tripinfo id="flow2.1" depart="2.80" departLane="A0A1_0" departPos="4.10" departSpeed="0.00" departDelay="1.80" arrival="82.80" arrivalLane="C3D3_0" arrivalPos="72.80" arrivalSpeed="11.86" duration="80.00" routeLength="512.81" waitingTime="7.20" waitingCount="1" stopTime="0.00" timeLoss="32.88" rerouteNo="0" devices="tripinfo_flow2.1" vType="vtypeauto" speedFactor="0.86" vaporized=""/>
    <tripinfo id="flow1.6" depart="16.70" departLane="A3B3_0" departPos="4.10" departSpeed="0.00" departDelay="10.70" arrival="83.00" arrivalLane="D3E3_0" arrivalPos="72.80" arrivalSpeed="14.39" duration="66.30" routeLength="368.70" waitingTime="26.00" waitingCount="1" stopTime="0.00" timeLoss="40.69" rerouteNo="0" devices="tripinfo_flow1.6" vType="vtypeauto" speedFactor="1.04" vaporized=""/>
    <tripinfo id="flow1.8" depart="22.20" departLane="A3B3_0" departPos="4.10" departSpeed="0.00" departDelay="14.20" arrival="83.00" arrivalLane="D3E3_1" arrivalPos="72.80" arrivalSpeed="15.64" duration="60.80" routeLength="368.70" waitingTime="16.40" waitingCount="2" stopTime="0.00" timeLoss="37.52" rerouteNo="0" devices="tripinfo_flow1.8" vType="vtypeauto" speedFactor="1.14" vaporized=""/>
    <tripinfo id="flow1.10" depart="27.80" departLane="A3B3_0" departPos="4.10" departSpeed="0.00" departDelay="17.80" arrival="83.10" arrivalLane="D3E3_2" arrivalPos="72.80" arrivalSpeed="13.41" duration="55.30" routeLength="368.70" waitingTime="10.30" waitingCount="2" stopTime="0.00" timeLoss="27.94" rerouteNo="0" devices="tripinfo_flow1.10" vType="vtypeauto" speedFactor="0.97" vaporized=""/>
    <tripinfo id="flow2.2" depart="5.50" departLane="A0A1_0" departPos="4.10" departSpeed="0.00" departDelay="3.50" arrival="84.30" arrivalLane="C3D3_0" arrivalPos="72.80" arrivalSpeed="12.08" duration="78.80" routeLength="512.81" waitingTime="5.20" waitingCount="1" stopTime="0.00" timeLoss="32.89" rerouteNo="0" devices="tripinfo_flow2.2" vType="vtypeauto" speedFactor="0.88" vaporized=""/>
    <tripinfo id="flow1.11" depart="30.60" departLane="A3B3_0" departPos="4.10" departSpeed="0.00" departDelay="19.60" arrival="84.50" arrivalLane="D3E3_1" arrivalPos="72.80" arrivalSpeed="13.99" duration="53.90" routeLength="368.70" waitingTime="3.70" waitingCount="2" stopTime="0.00" timeLoss="27.55" rerouteNo="0" devices="tripinfo_flow1.11" vType="vtypeauto" speedFactor="1.01" vaporized=""/>
    <tripinfo id="flow1.14" depart="38.90" departLane="A3B3_0" departPos="4.10" departSpeed="0.00" departDelay="24.90" arrival="84.50" arrivalLane="D3E3_2" arrivalPos="72.80" arrivalSpeed="15.21" duration="45.60" routeLength="368.70" waitingTime="0.90" waitingCount="1" stopTime="0.00" timeLoss="21.38" rerouteNo="0" devices="tripinfo_flow1.14" vType="vtypeauto" speedFactor="1.10" vaporized=""/>
    <tripinfo id="flow1.7" depart="19.50" departLane="A3B3_0" departPos="4.10" departSpeed="0.00" departDelay="12.50" arrival="85.00" arrivalLane="D3E3_0" arrivalPos="72.80" arrivalSpeed="11.79" duration="65.50" routeLength="368.70" waitingTime="19.30" waitingCount="2" stopTime="0.00" timeLoss="34.41" rerouteNo="0" devices="tripinfo_flow1.7" vType="vtypeauto" speedFactor="0.85" vaporized=""/>
    <tripinfo id="flow2.3" depart="8.30" departLane="A0A1_0" departPos="4.10" departSpeed="0.00" departDelay="5.30" arrival="86.00" arrivalLane="C3D3_0" arrivalPos="72.80" arrivalSpeed="12.31" duration="77.70" routeLength="512.81" waitingTime="3.70" waitingCount="1" stopTime="0.00" timeLoss="32.26" rerouteNo="0" devices="tripinfo_flow2.3" vType="vtypeauto" speedFactor="0.89" vaporized=""/>
    <tripinfo id="flow1.16" depart="44.50" departLane="A3B3_0" departPos="4.10" departSpeed="0.00" departDelay="28.50" arrival="86.10" arrivalLane="D3E3_2" arrivalPos="72.80" arrivalSpeed="13.96" duration="41.60" routeLength="368.70" waitingTime="0.00" waitingCount="0" stopTime="0.00" timeLoss="15.21" rerouteNo="0" devices="tripinfo_flow1.16" vType="vtypeauto" speedFactor="1.01" vaporized=""/>
    <tripinfo id="flow1.9" depart="25.00" departLane="A3B3_0" departPos="4.10" departSpeed="0.00" departDelay="16.00" arrival="86.60" arrivalLane="D3E3_0" arrivalPos="72.80" arrivalSpeed="12.91" duration="61.60" routeLength="368.70" waitingTime="10.10" waitingCount="2" stopTime="0.00" timeLoss="33.21" rerouteNo="0" devices="tripinfo_flow1.9" vType="vtypeauto" speedFactor="0.94" vaporized=""/>
    <tripinfo id="flow1.13" depart="36.20" departLane="A3B3_0" departPos="4.10" departSpeed="0.00" departDelay="23.20" arrival="86.80" arrivalLane="D3E3_1" arrivalPos="72.80" arrivalSpeed="11.52" duration="50.60" routeLength="368.70" waitingTime="0.00" waitingCount="0" stopTime="0.00" timeLoss="18.74" rerouteNo="0" devices="tripinfo_flow1.13" vType="vtypeauto" speedFactor="0.83" vaporized=""/>
    <tripinfo id="flow2.5" depart="13.90" departLane="A0A1_0" departPos="4.10" departSpeed="0.00" departDelay="8.90" arrival="87.40" arrivalLane="C3D3_0" arrivalPos="72.80" arrivalSpeed="14.89" duration="73.50" routeLength="512.81" waitingTime="4.00" waitingCount="1" stopTime="0.00" timeLoss="39.38" rerouteNo="0" devices="tripinfo_flow2.5" vType="vtypeauto" speedFactor="1.18" vaporized=""/>
    <tripinfo id="flow1.12" depart="33.40" departLane="A3B3_0" departPos="4.10" departSpeed="0.00" departDelay="21.40" arrival="88.10" arrivalLane="D3E3_0" arrivalPos="72.80" arrivalSpeed="13.55" duration="54.70" routeLength="368.70" waitingTime="1.10" waitingCount="1" stopTime="0.00" timeLoss="27.44" rerouteNo="0" devices="tripinfo_flow1.12" vType="vtypeauto" speedFactor="0.98" vaporized=""/>
    <tripinfo id="flow1.15" depart="41.70" departLane="A3B3_0" departPos="4.10" departSpeed="0.00" departDelay="26.70" arrival="88.40" arrivalLane="D3E3_1" arrivalPos="72.80" arrivalSpeed="13.98" duration="46.70" routeLength="368.70" waitingTime="0.00" waitingCount="0" stopTime="0.00" timeLoss="20.44" rerouteNo="0" devices="tripinfo_flow1.15" vType="vtypeauto" speedFactor="1.01" vaporized=""/>
    <tripinfo id="flow2.4" depart="11.00" departLane="A0A1_0" departPos="4.10" departSpeed="0.00" departDelay="7.00" arrival="88.90" arrivalLane="C3D3_0" arrivalPos="72.80" arrivalSpeed="16.29" duration="77.90" routeLength="512.81" waitingTime="8.70" waitingCount="2" stopTime="0.00" timeLoss="43.66" rerouteNo="0" devices="tripinfo_flow2.4" vType="vtypeauto" speedFactor="1.18" vaporized=""/>
    <tripinfo id="flow1.17" depart="47.30" departLane="A3B3_0" departPos="4.10" departSpeed="0.00" departDelay="30.30" arrival="89.70" arrivalLane="D3E3_0" arrivalPos="72.80" arrivalSpeed="13.06" duration="42.40" routeLength="368.70" waitingTime="0.00" waitingCount="0" stopTime="0.00" timeLoss="14.13" rerouteNo="0" devices="tripinfo_flow1.17" vType="vtypeauto" speedFactor="0.94" vaporized=""/>
    <tripinfo id="flow2.6" depart="16.70" departLane="A0A1_0" departPos="4.10" departSpeed="0.00" departDelay="10.70" arrival="91.20" arrivalLane="C3D3_0" arrivalPos="72.80" arrivalSpeed="14.41" duration="74.50" routeLength="512.81" waitingTime="4.10" waitingCount="3" stopTime="0.00" timeLoss="35.88" rerouteNo="0" devices="tripinfo_flow2.6" vType="vtypeauto" speedFactor="1.04" vaporized=""/>
    <tripinfo id="flow2.7" depart="19.50" departLane="A0A1_0" departPos="4.10" departSpeed="0.00" departDelay="12.50" arrival="92.90" arrivalLane="C3D3_0" arrivalPos="72.80" arrivalSpeed="16.22" duration="73.40" routeLength="512.81" waitingTime="4.60" waitingCount="2" stopTime="0.00" timeLoss="38.81" rerouteNo="0" devices="tripinfo_flow2.7" vType="vtypeauto" speedFactor="1.17" vaporized=""/>
    <tripinfo id="flow2.8" depart="22.20" departLane="A0A1_0" departPos="4.10" departSpeed="0.00" departDelay="14.20" arrival="95.50" arrivalLane="C3D3_0" arrivalPos="72.80" arrivalSpeed="14.10" duration="73.30" routeLength="512.81" waitingTime="3.10" waitingCount="3" stopTime="0.00" timeLoss="33.92" rerouteNo="0" devices="tripinfo_flow2.8" vType="vtypeauto" speedFactor="1.02" vaporized=""/>
    <tripinfo id="flow2.10" depart="27.80" departLane="A0A1_0" departPos="4.10" departSpeed="0.00" departDelay="17.80" arrival="98.20" arrivalLane="C3D3_0" arrivalPos="72.80" arrivalSpeed="12.95" duration="70.40" routeLength="512.81" waitingTime="2.10" waitingCount="3" stopTime="0.00" timeLoss="27.57" rerouteNo="0" devices="tripinfo_flow2.10" vType="vtypeauto" speedFactor="0.94" vaporized=""/>
    <tripinfo id="flow2.15" depart="41.80" departLane="A0A1_0" departPos="4.10" departSpeed="0.00" departDelay="26.80" arrival="100.00" arrivalLane="C3D3_0" arrivalPos="72.80" arrivalSpeed="14.31" duration="58.20" routeLength="512.81" waitingTime="1.40" waitingCount="1" stopTime="0.00" timeLoss="19.20" rerouteNo="0" devices="tripinfo_flow2.15" vType="vtypeauto" speedFactor="1.03" vaporized=""/>
    <tripinfo id="flow2.11" depart="30.60" departLane="A0A1_0" departPos="4.10" departSpeed="0.00" departDelay="19.60" arrival="101.90" arrivalLane="C3D3_0" arrivalPos="72.80" arrivalSpeed="15.08" duration="71.30" routeLength="512.81" waitingTime="0.00" waitingCount="0" stopTime="0.00" timeLoss="34.18" rerouteNo="0" devices="tripinfo_flow2.11" vType="vtypeauto" speedFactor="1.09" vaporized=""/>
    <tripinfo id="flow6.3" depart="8.40" departLane="D4D3_0" departPos="4.10" departSpeed="0.00" departDelay="5.40" arrival="102.20" arrivalLane="D1D0_2" arrivalPos="72.80" arrivalSpeed="13.06" duration="93.80" routeLength="368.70" waitingTime="47.90" waitingCount="3" stopTime="0.00" timeLoss="65.79" rerouteNo="0" devices="tripinfo_flow6.3" vType="vtypeauto" speedFactor="0.95" vaporized=""/>
    <tripinfo id="flow2.13" depart="36.20" departLane="A0A1_0" departPos="4.10" departSpeed="0.00" departDelay="23.20" arrival="104.60" arrivalLane="C3D3_0" arrivalPos="72.80" arrivalSpeed="12.80" duration="68.40" routeLength="512.81" waitingTime="0.10" waitingCount="1" stopTime="0.00" timeLoss="24.64" rerouteNo="0" devices="tripinfo_flow2.13" vType="vtypeauto" speedFactor="0.92" vaporized=""/>
    <tripinfo id="flow2.14" depart="39.00" departLane="A0A1_0" departPos="4.10" departSpeed="0.00" departDelay="25.00" arrival="106.20" arrivalLane="C3D3_0" arrivalPos="72.80" arrivalSpeed="14.75" duration="67.20" routeLength="512.81" waitingTime="0.00" waitingCount="0" stopTime="0.00" timeLoss="29.28" rerouteNo="0" devices="tripinfo_flow2.14" vType="vtypeauto" speedFactor="1.06" vaporized=""/>
    <tripinfo id="flow2.9" depart="25.00" departLane="A0A1_0" departPos="4.10" departSpeed="0.00" departDelay="16.00" arrival="109.30" arrivalLane="C3D3_0" arrivalPos="72.80" arrivalSpeed="12.14" duration="84.30" routeLength="512.81" waitingTime="4.00" waitingCount="2" stopTime="0.00" timeLoss="38.72" rerouteNo="0" devices="tripinfo_flow2.9" vType="vtypeauto" speedFactor="0.88" vaporized=""/>
    <tripinfo id="flow0.7" depart="11.80" departLane="B4B3_0" departPos="4.10" departSpeed="0.00" departDelay="4.80" arrival="109.60" arrivalLane="B3A3_2" arrivalPos="72.80" arrivalSpeed="11.77" duration="97.80" routeLength="560.63" waitingTime="38.70" waitingCount="2" stopTime="0.00" timeLoss="48.21" rerouteNo="0" devices="tripinfo_flow0.7" vType="vtypeauto" speedFactor="0.85" vaporized=""/>
    <tripinfo id="flow2.12" depart="33.40" departLane="A0A1_0" departPos="4.10" departSpeed="0.00" departDelay="21.40" arrival="110.90" arrivalLane="C3D3_0" arrivalPos="72.80" arrivalSpeed="13.90" duration="77.50" routeLength="512.81" waitingTime="0.00" waitingCount="0" stopTime="0.00" timeLoss="37.23" rerouteNo="0" devices="tripinfo_flow2.12" vType="vtypeauto" speedFactor="1.00" vaporized=""/>
    <tripinfo id="flow0.0" depart="0.00" departLane="B4B3_0" departPos="4.10" departSpeed="0.00" departDelay="0.00" arrival="111.20" arrivalLane="B3A3_2" arrivalPos="72.80" arrivalSpeed="14.68" duration="111.20" routeLength="560.63" waitingTime="52.20" waitingCount="2" stopTime="0.00" timeLoss="71.37" rerouteNo="0" devices="tripinfo_flow0.0" vType="vtypeauto" speedFactor="1.06" vaporized=""/>
    <tripinfo id="flow2.16" depart="44.60" departLane="A0A1_0" departPos="4.10" departSpeed="0.00" departDelay="28.60" arrival="112.60" arrivalLane="C3D3_0" arrivalPos="72.80" arrivalSpeed="15.16" duration="68.00" routeLength="512.81" waitingTime="0.00" waitingCount="0" stopTime="0.00" timeLoss="31.14" rerouteNo="0" devices="tripinfo_flow2.16" vType="vtypeauto" speedFactor="1.10" vaporized=""/>
    <tripinfo id="flow2.18" depart="50.20" departLane="A0A1_0" departPos="4.10" departSpeed="0.00" departDelay="32.20" arrival="114.50" arrivalLane="C3D3_0" arrivalPos="72.80" arrivalSpeed="15.42" duration="64.30" routeLength="512.81" waitingTime="0.00" waitingCount="0" stopTime="0.00" timeLoss="28.19" rerouteNo="0" devices="tripinfo_flow2.18" vType="vtypeauto" speedFactor="1.12" vaporized=""/>
    <tripinfo id="flow4.12" depart="35.20" departLane="C0C1_0" departPos="4.10" departSpeed="0.00" departDelay="23.20" arrival="114.90" arrivalLane="C3C4_1" arrivalPos="72.80" arrivalSpeed="13.92" duration="79.70" routeLength="368.70" waitingTime="44.40" waitingCount="1" stopTime="0.00" timeLoss="53.26" rerouteNo="0" devices="tripinfo_flow4.12" vType="vtypeauto" speedFactor="1.01" vaporized=""/>
    <tripinfo id="flow4.10" depart="29.40" departLane="C0C1_0" departPos="4.10" departSpeed="0.00" departDelay="19.40" arrival="115.50" arrivalLane="C3C4_0" arrivalPos="72.80" arrivalSpeed="13.21" duration="86.10" routeLength="368.70" waitingTime="50.20" waitingCount="1" stopTime="0.00" timeLoss="58.23" rerouteNo="0" devices="tripinfo_flow4.10" vType="vtypeauto" speedFactor="0.96" vaporized=""/>
    <tripinfo id="flow4.13" depart="38.10" departLane="C0C1_0" departPos="4.10" departSpeed="0.00" departDelay="25.10" arrival="116.40" arrivalLane="C3C4_1" arrivalPos="72.80" arrivalSpeed="14.66" duration="78.30" routeLength="368.70" waitingTime="39.70" waitingCount="1" stopTime="0.00" timeLoss="53.14" rerouteNo="0" devices="tripinfo_flow4.13" vType="vtypeauto" speedFactor="1.06" vaporized=""/>
    <tripinfo id="flow4.15" depart="43.90" departLane="C0C1_0" departPos="4.10" departSpeed="0.00" departDelay="28.90" arrival="116.90" arrivalLane="C3C4_2" arrivalPos="72.80" arrivalSpeed="13.28" duration="73.00" routeLength="368.70" waitingTime="32.80" waitingCount="1" stopTime="0.00" timeLoss="45.32" rerouteNo="0" devices="tripinfo_flow4.15" vType="vtypeauto" speedFactor="0.96" vaporized=""/>
    <tripinfo id="flow4.9" depart="26.50" departLane="C0C1_0" departPos="4.10" departSpeed="0.00" departDelay="17.50" arrival="117.40" arrivalLane="C3C4_0" arrivalPos="72.80" arrivalSpeed="12.69" duration="90.90" routeLength="368.70" waitingTime="53.20" waitingCount="1" stopTime="0.00" timeLoss="61.82" rerouteNo="0" devices="tripinfo_flow4.9" vType="vtypeauto" speedFactor="0.91" vaporized=""/>
    <tripinfo id="flow4.16" depart="46.80" departLane="C0C1_0" departPos="4.10" departSpeed="0.00" departDelay="30.80" arrival="117.80" arrivalLane="C3C4_1" arrivalPos="72.80" arrivalSpeed="16.30" duration="71.00" routeLength="368.70" waitingTime="32.20" waitingCount="1" stopTime="0.00" timeLoss="48.44" rerouteNo="0" devices="tripinfo_flow4.16" vType="vtypeauto" speedFactor="1.18" vaporized=""/>
    <tripinfo id="flow4.18" depart="52.60" departLane="C0C1_0" departPos="4.10" departSpeed="0.00" departDelay="34.60" arrival="118.40" arrivalLane="C3C4_2" arrivalPos="72.80" arrivalSpeed="14.32" duration="65.80" routeLength="368.70" waitingTime="25.70" waitingCount="1" stopTime="0.00" timeLoss="40.08" rerouteNo="0" devices="tripinfo_flow4.18" vType="vtypeauto" speedFactor="1.03" vaporized=""/>
    <tripinfo id="flow4.11" depart="32.30" departLane="C0C1_0" departPos="4.10" departSpeed="0.00" departDelay="21.30" arrival="118.90" arrivalLane="C3C4_0" arrivalPos="72.80" arrivalSpeed="13.77" duration="86.60" routeLength="368.70" waitingTime="45.30" waitingCount="1" stopTime="0.00" timeLoss="59.97" rerouteNo="0" devices="tripinfo_flow4.11" vType="vtypeauto" speedFactor="1.00" vaporized=""/>
    <tripinfo id="flow4.19" depart="55.50" departLane="C0C1_0" departPos="4.10" departSpeed="0.00" departDelay="36.50" arrival="119.60" arrivalLane="C3C4_1" arrivalPos="72.80" arrivalSpeed="14.08" duration="64.10" routeLength="368.70" waitingTime="24.10" waitingCount="1" stopTime="0.00" timeLoss="37.92" rerouteNo="0" devices="tripinfo_flow4.19" vType="vtypeauto" speedFactor="1.02" vaporized=""/>
    <tripinfo id="flow0.8" depart="14.00" departLane="B4B3_0" departPos="4.10" departSpeed="0.00" departDelay="6.00" arrival="120.20" arrivalLane="B3A3_2" arrivalPos="72.80" arrivalSpeed="12.44" duration="106.20" routeLength="560.63" waitingTime="32.30" waitingCount="4" stopTime="0.00" timeLoss="59.27" rerouteNo="0" devices="tripinfo_flow0.8" vType="vtypeauto" speedFactor="0.90" vaporized=""/>
    <tripinfo id="flow4.14" depart="40.90" departLane="C0C1_0" departPos="4.10" departSpeed="0.00" departDelay="26.90" arrival="120.50" arrivalLane="C3C4_0" arrivalPos="72.80" arrivalSpeed="13.42" duration="79.60" routeLength="368.70" waitingTime="37.50" waitingCount="1" stopTime="0.00" timeLoss="52.13" rerouteNo="0" devices="tripinfo_flow4.14" vType="vtypeauto" speedFactor="0.97" vaporized=""/>
    <tripinfo id="flow4.17" depart="49.70" departLane="C0C1_0" departPos="4.10" departSpeed="0.00" departDelay="32.70" arrival="122.00" arrivalLane="C3C4_0" arrivalPos="72.80" arrivalSpeed="14.19" duration="72.30" routeLength="368.70" waitingTime="30.20" waitingCount="1" stopTime="0.00" timeLoss="46.32" rerouteNo="0" devices="tripinfo_flow4.17" vType="vtypeauto" speedFactor="1.02" vaporized=""/>
    <tripinfo id="flow1.19" depart="52.90" departLane="A3B3_0" departPos="4.10" departSpeed="0.00" departDelay="33.90" arrival="147.20" arrivalLane="D3E3_0" arrivalPos="72.80" arrivalSpeed="17.00" duration="94.30" routeLength="368.70" waitingTime="52.00" waitingCount="3" stopTime="0.00" timeLoss="72.65" rerouteNo="0" devices="tripinfo_flow1.19" vType="vtypeauto" speedFactor="1.23" vaporized=""/>
    <tripinfo id="flow1.22" depart="61.30" departLane="A3B3_0" departPos="4.10" departSpeed="0.00" departDelay="39.30" arrival="147.30" arrivalLane="D3E3_0" arrivalPos="72.80" arrivalSpeed="15.58" duration="86.00" routeLength="368.70" waitingTime="35.00" waitingCount="3" stopTime="0.00" timeLoss="62.29" rerouteNo="0" devices="tripinfo_flow1.22" vType="vtypeauto" speedFactor="1.12" vaporized=""/>
    <tripinfo id="flow1.21" depart="58.50" departLane="A3B3_0" departPos="4.10" departSpeed="0.00" departDelay="37.50" arrival="147.90" arrivalLane="D3E3_2" arrivalPos="72.80" arrivalSpeed="13.40" duration="89.40" routeLength="368.70" waitingTime="45.30" waitingCount="3" stopTime="0.00" timeLoss="61.93" rerouteNo="0" devices="tripinfo_flow1.21" vType="vtypeauto" speedFactor="0.97" vaporized=""/>
    <tripinfo id="flow1.25" depart="69.70" departLane="A3B3_0" departPos="4.10" departSpeed="0.00" departDelay="44.70" arrival="148.80" arrivalLane="D3E3_1" arrivalPos="72.80" arrivalSpeed="15.06" duration="79.10" routeLength="368.70" waitingTime="21.60" waitingCount="3" stopTime="0.00" timeLoss="54.68" rerouteNo="0" devices="tripinfo_flow1.25" vType="vtypeauto" speedFactor="1.09" vaporized=""/>
    <tripinfo id="flow1.24" depart="66.90" departLane="A3B3_0" departPos="4.10" departSpeed="0.00" departDelay="42.90" arrival="149.50" arrivalLane="D3E3_2" arrivalPos="72.80" arrivalSpeed="12.94" duration="82.60" routeLength="368.70" waitingTime="26.10" waitingCount="3" stopTime="0.00" timeLoss="54.36" rerouteNo="0" devices="tripinfo_flow1.24" vType="vtypeauto" speedFactor="0.94" vaporized=""/>
    <tripinfo id="flow1.18" depart="50.10" departLane="A3B3_0" departPos="4.10" departSpeed="0.00" departDelay="32.10" arrival="150.20" arrivalLane="D3E3_0" arrivalPos="72.80" arrivalSpeed="11.31" duration="100.10" routeLength="368.70" waitingTime="50.20" waitingCount="3" stopTime="0.00" timeLoss="67.80" rerouteNo="0" devices="tripinfo_flow1.18" vType="vtypeauto" speedFactor="0.82" vaporized=""/>
    <tripinfo id="flow1.27" depart="75.20" departLane="A3B3_0" departPos="4.10" departSpeed="0.00" departDelay="48.20" arrival="151.20" arrivalLane="D3E3_2" arrivalPos="72.80" arrivalSpeed="12.41" duration="76.00" routeLength="368.70" waitingTime="14.90" waitingCount="3" stopTime="0.00" timeLoss="46.55" rerouteNo="0" devices="tripinfo_flow1.27" vType="vtypeauto" speedFactor="0.90" vaporized=""/>
    <tripinfo id="flow1.28" depart="78.00" departLane="A3B3_0" departPos="4.10" departSpeed="0.00" departDelay="50.00" arrival="151.30" arrivalLane="D3E3_1" arrivalPos="72.80" arrivalSpeed="12.00" duration="73.30" routeLength="368.70" waitingTime="12.10" waitingCount="1" stopTime="0.00" timeLoss="42.85" rerouteNo="0" devices="tripinfo_flow1.28" vType="vtypeauto" speedFactor="0.87" vaporized=""/>
    <tripinfo id="flow1.20" depart="55.70" departLane="A3B3_0" departPos="4.10" departSpeed="0.00" departDelay="35.70" arrival="151.70" arrivalLane="D3E3_0" arrivalPos="72.80" arrivalSpeed="14.43" duration="96.00" routeLength="368.70" waitingTime="36.20" waitingCount="3" stopTime="0.00" timeLoss="73.19" rerouteNo="0" devices="tripinfo_flow1.20" vType="vtypeauto" speedFactor="1.16" vaporized=""/>
    <tripinfo id="flow1.30" depart="83.70" departLane="A3B3_0" departPos="4.10" departSpeed="0.00" departDelay="53.70" arrival="152.70" arrivalLane="D3E3_2" arrivalPos="72.80" arrivalSpeed="14.34" duration="69.00" routeLength="368.70" waitingTime="6.60" waitingCount="1" stopTime="0.00" timeLoss="43.38" rerouteNo="0" devices="tripinfo_flow1.30" vType="vtypeauto" speedFactor="1.04" vaporized=""/>
    <tripinfo id="flow1.31" depart="86.20" departLane="A3B3_0" departPos="4.10" departSpeed="0.00" departDelay="55.20" arrival="152.80" arrivalLane="D3E3_1" arrivalPos="72.80" arrivalSpeed="14.49" duration="66.60" routeLength="368.70" waitingTime="5.40" waitingCount="1" stopTime="0.00" timeLoss="41.69" rerouteNo="0" devices="tripinfo_flow1.31" vType="vtypeauto" speedFactor="1.07" vaporized=""/>
    <tripinfo id="flow1.23" depart="64.10" departLane="A3B3_0" departPos="4.10" departSpeed="0.00" departDelay="41.10" arrival="153.20" arrivalLane="D3E3_0" arrivalPos="72.80" arrivalSpeed="13.73" duration="89.10" routeLength="368.70" waitingTime="25.60" waitingCount="2" stopTime="0.00" timeLoss="62.32" rerouteNo="0" devices="tripinfo_flow1.23" vType="vtypeauto" speedFactor="0.99" vaporized=""/>
    <tripinfo id="flow1.34" depart="93.50" departLane="A3B3_0" departPos="4.10" departSpeed="0.00" departDelay="59.50" arrival="154.20" arrivalLane="D3E3_1" arrivalPos="72.80" arrivalSpeed="15.60" duration="60.70" routeLength="368.70" waitingTime="0.00" waitingCount="0" stopTime="0.00" timeLoss="37.11" rerouteNo="0" devices="tripinfo_flow1.34" vType="vtypeauto" speedFactor="1.13" vaporized=""/>