<?xml version="1.0" encoding="UTF-8"?>

<!-- generated on 2024-10-25 17:30:02 by Eclipse SUMO sumo Version 1.20.0
<configuration xmlns:xsi="http://www.w3.org/2001/XMLSchema-instance" xsi:noNamespaceSchemaLocation="http://sumo.dlr.de/xsd/sumoConfiguration.xsd">

    <input>
        <net-file value="sim_cfg_grid_3_lanes/grid.net.xml"/>
        <route-files value="sim_cfg_grid_3_lanes/grid.rou.xml"/>
    </input>

    <output>
        <tripinfo-output value="sim_cfg_grid_3_lanes/tripinfo2.xml"/>
    </output>

    <time>
        <begin value="0"/>
        <end value="500"/>
        <step-length value="0.1"/>
    </time>

    <traci_server>
        <remote-port value="49947"/>
    </traci_server>

    <gui_only>
        <gui-settings-file value="sim_cfg_grid_3_lanes/gui_settings.xml"/>
    </gui_only>

</configuration>
-->

<tripinfos xmlns:xsi="http://www.w3.org/2001/XMLSchema-instance" xsi:noNamespaceSchemaLocation="http://sumo.dlr.de/xsd/tripinfo_file.xsd">
    <tripinfo id="flow4.0" depart="0.40" departLane="C0C1_0" departPos="4.10" departSpeed="0.00" departDelay="0.40" arrival="49.60" arrivalLane="C3C4_0" arrivalPos="72.80" arrivalSpeed="14.28" duration="49.20" routeLength="368.70" waitingTime="10.80" waitingCount="2" stopTime="0.00" timeLoss="23.39" rerouteNo="0" devices="tripinfo_flow4.0" vType="vtypeauto" speedFactor="1.03" vaporized=""/>
    <tripinfo id="flow4.1" depart="3.30" departLane="C0C1_0" departPos="4.10" departSpeed="0.00" departDelay="2.30" arrival="49.60" arrivalLane="C3C4_1" arrivalPos="72.80" arrivalSpeed="14.18" duration="46.30" routeLength="368.70" waitingTime="7.70" waitingCount="2" stopTime="0.00" timeLoss="20.42" rerouteNo="0" devices="tripinfo_flow4.1" vType="vtypeauto" speedFactor="1.03" vaporized=""/>
    <tripinfo id="flow4.4" depart="11.90" departLane="C0C1_0" departPos="4.10" departSpeed="0.00" departDelay="7.90" arrival="51.30" arrivalLane="C3C4_1" arrivalPos="72.80" arrivalSpeed="13.89" duration="39.40" routeLength="368.70" waitingTime="0.00" waitingCount="0" stopTime="0.00" timeLoss="12.97" rerouteNo="0" devices="tripinfo_flow4.4" vType="vtypeauto" speedFactor="1.01" vaporized=""/>
    <tripinfo id="flow4.3" depart="9.00" departLane="C0C1_0" departPos="4.10" departSpeed="0.00" departDelay="6.00" arrival="51.60" arrivalLane="C3C4_2" arrivalPos="72.80" arrivalSpeed="12.11" duration="42.60" routeLength="368.70" waitingTime="2.50" waitingCount="1" stopTime="0.00" timeLoss="12.10" rerouteNo="0" devices="tripinfo_flow4.3" vType="vtypeauto" speedFactor="0.87" vaporized=""/>
    <tripinfo id="flow4.2" depart="6.10" departLane="C0C1_0" departPos="4.10" departSpeed="0.00" departDelay="4.10" arrival="52.10" arrivalLane="C3C4_0" arrivalPos="72.80" arrivalSpeed="13.00" duration="46.00" routeLength="368.70" waitingTime="0.00" waitingCount="0" stopTime="0.00" timeLoss="17.63" rerouteNo="0" devices="tripinfo_flow4.2" vType="vtypeauto" speedFactor="0.94" vaporized=""/>
    <tripinfo id="flow4.7" depart="20.70" departLane="C0C1_0" departPos="4.10" departSpeed="0.00" departDelay="13.70" arrival="52.80" arrivalLane="C3C4_1" arrivalPos="72.80" arrivalSpeed="15.11" duration="32.10" routeLength="368.70" waitingTime="0.00" waitingCount="0" stopTime="0.00" timeLoss="7.83" rerouteNo="0" devices="tripinfo_flow4.7" vType="vtypeauto" speedFactor="1.10" vaporized=""/>
    <tripinfo id="flow4.6" depart="17.80" departLane="C0C1_0" departPos="4.10" departSpeed="0.00" departDelay="11.80" arrival="53.10" arrivalLane="C3C4_2" arrivalPos="72.80" arrivalSpeed="13.83" duration="35.30" routeLength="368.70" waitingTime="0.00" waitingCount="0" stopTime="0.00" timeLoss="8.64" rerouteNo="0" devices="tripinfo_flow4.6" vType="vtypeauto" speedFactor="1.00" vaporized=""/>
    <tripinfo id="flow4.5" depart="14.80" departLane="C0C1_0" departPos="4.10" departSpeed="0.00" departDelay="9.80" arrival="54.10" arrivalLane="C3C4_0" arrivalPos="72.80" arrivalSpeed="12.44" duration="39.30" routeLength="368.70" waitingTime="0.00" waitingCount="0" stopTime="0.00" timeLoss="9.81" rerouteNo="0" devices="tripinfo_flow4.5" vType="vtypeauto" speedFactor="0.90" vaporized=""/>
    <tripinfo id="flow4.8" depart="23.60" departLane="C0C1_0" departPos="4.10" departSpeed="0.00" departDelay="15.60" arrival="55.60" arrivalLane="C3C4_0" arrivalPos="72.80" arrivalSpeed="14.97" duration="32.00" routeLength="368.70" waitingTime="0.00" waitingCount="0" stopTime="0.00" timeLoss="7.45" rerouteNo="0" devices="tripinfo_flow4.8" vType="vtypeauto" speedFactor="1.08" vaporized=""/>
    <tripinfo id="flow1.3" depart="8.40" departLane="A3B3_0" departPos="4.10" departSpeed="0.00" departDelay="5.40" arrival="79.90" arrivalLane="D3E3_2" arrivalPos="72.80" arrivalSpeed="13.49" duration="71.50" routeLength="368.70" waitingTime="35.50" waitingCount="1" stopTime="0.00" timeLoss="44.19" rerouteNo="0" devices="tripinfo_flow1.3" vType="vtypeauto" speedFactor="0.97" vaporized=""/>
    <tripinfo id="flow1.0" depart="0.00" departLane="A3B3_0" departPos="4.10" departSpeed="0.00" departDelay="0.00" arrival="80.10" arrivalLane="D3E3_0" arrivalPos="72.80" arrivalSpeed="12.98" duration="80.10" routeLength="368.70" waitingTime="40.10" waitingCount="2" stopTime="0.00" timeLoss="51.72" rerouteNo="0" devices="tripinfo_flow1.0" vType="vtypeauto" speedFactor="0.94" vaporized=""/>
    <tripinfo id="flow1.1" depart="2.80" departLane="A3B3_0" departPos="4.10" departSpeed="0.00" departDelay="1.80" arrival="80.10" arrivalLane="D3E3_1" arrivalPos="72.80" arrivalSpeed="12.98" duration="77.30" routeLength="368.70" waitingTime="36.90" waitingCount="2" stopTime="0.00" timeLoss="48.92" rerouteNo="0" devices="tripinfo_flow1.1" vType="vtypeauto" speedFactor="0.94" vaporized=""/>
    <tripinfo id="flow2.0" depart="0.00" departLane="A0A1_0" departPos="4.10" departSpeed="0.00" departDelay="0.00" arrival="81.30" arrivalLane="C3D3_1" arrivalPos="72.80" arrivalSpeed="12.67" duration="81.30" routeLength="512.81" waitingTime="22.10" waitingCount="2" stopTime="0.00" timeLoss="41.48" rerouteNo="0" devices="tripinfo_flow2.0" vType="vtypeauto" speedFactor="1.01" vaporized=""/>
    <tripinfo id="flow1.4" depart="11.20" departLane="A3B3_0" departPos="4.10" departSpeed="0.00" departDelay="7.20" arrival="81.50" arrivalLane="D3E3_2" arrivalPos="72.80" arrivalSpeed="12.86" duration="70.30" routeLength="368.70" waitingTime="29.30" waitingCount="1" stopTime="0.00" timeLoss="41.78" rerouteNo="0" devices="tripinfo_flow1.4" vType="vtypeauto" speedFactor="0.93" vaporized=""/>
    <tripinfo id="flow1.5" depart="14.00" departLane="A3B3_0" departPos="4.10" departSpeed="0.00" departDelay="9.00" arrival="81.60" arrivalLane="D3E3_1" arrivalPos="72.80" arrivalSpeed="13.42" duration="67.60" routeLength="368.70" waitingTime="26.70" waitingCount="1" stopTime="0.00" timeLoss="40.29" rerouteNo="0" devices="tripinfo_flow1.5" vType="vtypeauto" speedFactor="0.97" vaporized=""/>
    <tripinfo id="flow1.2" depart="5.60" departLane="A3B3_0" departPos="4.10" departSpeed="0.00" departDelay="3.60" arrival="81.70" arrivalLane="D3E3_0" arrivalPos="72.80" arrivalSpeed="12.82" duration="76.10" routeLength="368.70" waitingTime="29.00" waitingCount="1" stopTime="0.00" timeLoss="47.38" rerouteNo="0" devices="tripinfo_flow1.2" vType="vtypeauto" speedFactor="0.93" vaporized=""/>
    <tripinfo id="flow2.1" depart="2.80" departLane="A0A1_0" departPos="4.10" departSpeed="0.00" departDelay="1.80" arrival="82.90" arrivalLane="C3D3_0" arrivalPos="72.80" arrivalSpeed="11.86" duration="80.10" routeLength="512.81" waitingTime="7.20" waitingCount="1" stopTime="0.00" timeLoss="32.98" rerouteNo="0" devices="tripinfo_flow2.1" vType="vtypeauto" speedFactor="0.86" vaporized=""/>
    <tripinfo id="flow1.8" depart="22.20" departLane="A3B3_0" departPos="4.10" departSpeed="0.00" departDelay="14.20" arrival="83.00" arrivalLane="D3E3_1" arrivalPos="72.80" arrivalSpeed="15.64" duration="60.80" routeLength="368.70" waitingTime="16.40" waitingCount="2" stopTime="0.00" timeLoss="37.57" rerouteNo="0" devices="tripinfo_flow1.8" vType="vtypeauto" speedFactor="1.14" vaporized=""/>
    <tripinfo id="flow1.6" depart="16.70" departLane="A3B3_0" departPos="4.10" departSpeed="0.00" departDelay="10.70" arrival="83.10" arrivalLane="D3E3_0" arrivalPos="72.80" arrivalSpeed="14.38" duration="66.40" routeLength="368.70" waitingTime="26.00" waitingCount="1" stopTime="0.00" timeLoss="40.82" rerouteNo="0" devices="tripinfo_flow1.6" vType="vtypeauto" speedFactor="1.04" vaporized=""/>
    <tripinfo id="flow1.10" depart="27.80" departLane="A3B3_0" departPos="4.10" departSpeed="0.00" departDelay="17.80" arrival="83.10" arrivalLane="D3E3_2" arrivalPos="72.80" arrivalSpeed="13.45" duration="55.30" routeLength="368.70" waitingTime="10.40" waitingCount="2" stopTime="0.00" timeLoss="27.95" rerouteNo="0" devices="tripinfo_flow1.10" vType="vtypeauto" speedFactor="0.97" vaporized=""/>
    <tripinfo id="flow2.6" depart="16.70" departLane="A0A1_0" departPos="4.10" departSpeed="0.00" departDelay="10.70" arrival="84.40" arrivalLane="C3D3_0" arrivalPos="72.80" arrivalSpeed="13.98" duration="67.70" routeLength="512.81" waitingTime="1.90" waitingCount="1" stopTime="0.00" timeLoss="29.03" rerouteNo="0" devices="tripinfo_flow2.6" vType="vtypeauto" speedFactor="1.04" vaporized=""/>
    <tripinfo id="flow1.14" depart="38.90" departLane="A3B3_0" departPos="4.10" departSpeed="0.00" departDelay="24.90" arrival="84.50" arrivalLane="D3E3_2" arrivalPos="72.80" arrivalSpeed="15.13" duration="45.60" routeLength="368.70" waitingTime="0.90" waitingCount="1" stopTime="0.00" timeLoss="21.39" rerouteNo="0" devices="tripinfo_flow1.14" vType="vtypeauto" speedFactor="1.10" vaporized=""/>
    <tripinfo id="flow1.11" depart="30.60" departLane="A3B3_0" departPos="4.10" departSpeed="0.00" departDelay="19.60" arrival="84.60" arrivalLane="D3E3_1" arrivalPos="72.80" arrivalSpeed="13.99" duration="54.00" routeLength="368.70" waitingTime="3.50" waitingCount="2" stopTime="0.00" timeLoss="27.59" rerouteNo="0" devices="tripinfo_flow1.11" vType="vtypeauto" speedFactor="1.01" vaporized=""/>
    <tripinfo id="flow1.7" depart="19.50" departLane="A3B3_0" departPos="4.10" departSpeed="0.00" departDelay="12.50" arrival="85.10" arrivalLane="D3E3_0" arrivalPos="72.80" arrivalSpeed="11.84" duration="65.60" routeLength="368.70" waitingTime="19.30" waitingCount="2" stopTime="0.00" timeLoss="34.52" rerouteNo="0" devices="tripinfo_flow1.7" vType="vtypeauto" speedFactor="0.85" vaporized=""/>
    <tripinfo id="flow1.16" depart="44.50" departLane="A3B3_0" departPos="4.10" departSpeed="0.00" departDelay="28.50" arrival="86.10" arrivalLane="D3E3_2" arrivalPos="72.80" arrivalSpeed="13.98" duration="41.60" routeLength="368.70" waitingTime="0.00" waitingCount="0" stopTime="0.00" timeLoss="15.22" rerouteNo="0" devices="tripinfo_flow1.16" vType="vtypeauto" speedFactor="1.01" vaporized=""/>
    <tripinfo id="flow2.2" depart="5.50" departLane="A0A1_0" departPos="4.10" departSpeed="0.00" departDelay="3.50" arrival="86.20" arrivalLane="C3D3_0" arrivalPos="72.80" arrivalSpeed="12.17" duration="80.70" routeLength="512.81" waitingTime="5.20" waitingCount="1" stopTime="0.00" timeLoss="34.70" rerouteNo="0" devices="tripinfo_flow2.2" vType="vtypeauto" speedFactor="0.88" vaporized=""/>
    <tripinfo id="flow1.9" depart="25.00" departLane="A3B3_0" departPos="4.10" departSpeed="0.00" departDelay="16.00" arrival="86.70" arrivalLane="D3E3_0" arrivalPos="72.80" arrivalSpeed="12.92" duration="61.70" routeLength="368.70" waitingTime="10.10" waitingCount="2" stopTime="0.00" timeLoss="33.32" rerouteNo="0" devices="tripinfo_flow1.9" vType="vtypeauto" speedFactor="0.94" vaporized=""/>
    <tripinfo id="flow1.13" depart="36.20" departLane="A3B3_0" departPos="4.10" departSpeed="0.00" departDelay="23.20" arrival="86.90" arrivalLane="D3E3_1" arrivalPos="72.80" arrivalSpeed="11.55" duration="50.70" routeLength="368.70" waitingTime="0.00" waitingCount="0" stopTime="0.00" timeLoss="18.78" rerouteNo="0" devices="tripinfo_flow1.13" vType="vtypeauto" speedFactor="0.83" vaporized=""/>
    <tripinfo id="flow1.12" depart="33.40" departLane="A3B3_0" departPos="4.10" departSpeed="0.00" departDelay="21.40" arrival="88.20" arrivalLane="D3E3_0" arrivalPos="72.80" arrivalSpeed="13.49" duration="54.80" routeLength="368.70" waitingTime="1.10" waitingCount="1" stopTime="0.00" timeLoss="27.56" rerouteNo="0" devices="tripinfo_flow1.12" vType="vtypeauto" speedFactor="0.98" vaporized=""/>
    <tripinfo id="flow1.15" depart="41.70" departLane="A3B3_0" departPos="4.10" departSpeed="0.00" departDelay="26.70" arrival="88.40" arrivalLane="D3E3_1" arrivalPos="72.80" arrivalSpeed="14.00" duration="46.70" routeLength="368.70" waitingTime="0.00" waitingCount="0" stopTime="0.00" timeLoss="20.47" rerouteNo="0" devices="tripinfo_flow1.15" vType="vtypeauto" speedFactor="1.01" vaporized=""/>
    <tripinfo id="flow1.17" depart="47.30" departLane="A3B3_0" departPos="4.10" departSpeed="0.00" departDelay="30.30" arrival="89.80" arrivalLane="D3E3_0" arrivalPos="72.80" arrivalSpeed="12.98" duration="42.50" routeLength="368.70" waitingTime="0.00" waitingCount="0" stopTime="0.00" timeLoss="14.25" rerouteNo="0" devices="tripinfo_flow1.17" vType="vtypeauto" speedFactor="0.94" vaporized=""/>
    <tripinfo id="flow6.4" depart="11.30" departLane="D4D3_0" departPos="4.10" departSpeed="0.00" departDelay="7.30" arrival="94.80" arrivalLane="D1D0_2" arrivalPos="72.80" arrivalSpeed="13.76" duration="83.50" routeLength="368.70" waitingTime="35.20" waitingCount="2" stopTime="0.00" timeLoss="56.76" rerouteNo="0" devices="tripinfo_flow6.4" vType="vtypeauto" speedFactor="0.99" vaporized=""/>
    <tripinfo id="flow6.9" depart="25.50" departLane="D4D3_0" departPos="4.10" departSpeed="0.00" departDelay="16.50" arrival="96.30" arrivalLane="D1D0_2" arrivalPos="72.80" arrivalSpeed="14.12" duration="70.80" routeLength="368.70" waitingTime="20.50" waitingCount="2" stopTime="0.00" timeLoss="44.80" rerouteNo="0" devices="tripinfo_flow6.9" vType="vtypeauto" speedFactor="1.02" vaporized=""/>
    <tripinfo id="flow2.7" depart="19.50" departLane="A0A1_0" departPos="4.10" departSpeed="0.00" departDelay="12.50" arrival="98.90" arrivalLane="C3D3_0" arrivalPos="72.80" arrivalSpeed="16.21" duration="79.40" routeLength="512.81" waitingTime="13.90" waitingCount="5" stopTime="0.00" timeLoss="44.82" rerouteNo="0" devices="tripinfo_flow2.7" vType="vtypeauto" speedFactor="1.17" vaporized=""/>
    <tripinfo id="flow6.15" depart="42.30" departLane="D4D3_0" departPos="4.10" departSpeed="0.00" departDelay="27.30" arrival="99.20" arrivalLane="D1D0_2" arrivalPos="72.80" arrivalSpeed="11.91" duration="56.90" routeLength="368.70" waitingTime="2.30" waitingCount="2" stopTime="0.00" timeLoss="26.19" rerouteNo="0" devices="tripinfo_flow6.15" vType="vtypeauto" speedFactor="0.87" vaporized=""/>
    <tripinfo id="flow6.18" depart="50.60" departLane="D4D3_0" departPos="4.10" departSpeed="0.00" departDelay="32.60" arrival="100.70" arrivalLane="D1D0_2" arrivalPos="72.80" arrivalSpeed="13.24" duration="50.10" routeLength="368.70" waitingTime="0.00" waitingCount="0" stopTime="0.00" timeLoss="22.44" rerouteNo="0" devices="tripinfo_flow6.18" vType="vtypeauto" speedFactor="0.96" vaporized=""/>
    <tripinfo id="flow2.11" depart="30.60" departLane="A0A1_0" departPos="4.10" departSpeed="0.00" departDelay="19.60" arrival="101.90" arrivalLane="C3D3_0" arrivalPos="72.80" arrivalSpeed="15.09" duration="71.30" routeLength="512.81" waitingTime="8.30" waitingCount="5" stopTime="0.00" timeLoss="34.18" rerouteNo="0" devices="tripinfo_flow2.11" vType="vtypeauto" speedFactor="1.09" vaporized=""/>
    <tripinfo id="flow6.12" depart="33.90" departLane="D4D3_0" departPos="4.10" departSpeed="0.00" departDelay="21.90" arrival="102.40" arrivalLane="D1D0_2" arrivalPos="72.80" arrivalSpeed="14.08" duration="68.50" routeLength="368.70" waitingTime="11.60" waitingCount="2" stopTime="0.00" timeLoss="42.32" rerouteNo="0" devices="tripinfo_flow6.12" vType="vtypeauto" speedFactor="1.02" vaporized=""/>
    <tripinfo id="flow2.4" depart="11.00" departLane="A0A1_0" departPos="4.10" departSpeed="0.00" departDelay="7.00" arrival="103.40" arrivalLane="C3D3_0" arrivalPos="72.80" arrivalSpeed="16.35" duration="92.40" routeLength="512.81" waitingTime="11.60" waitingCount="4" stopTime="0.00" timeLoss="58.18" rerouteNo="0" devices="tripinfo_flow2.4" vType="vtypeauto" speedFactor="1.18" vaporized=""/>
    <tripinfo id="flow6.1" depart="2.80" departLane="D4D3_0" departPos="4.10" departSpeed="0.00" departDelay="1.80" arrival="103.80" arrivalLane="D1D0_2" arrivalPos="72.80" arrivalSpeed="15.57" duration="101.00" routeLength="368.70" waitingTime="53.80" waitingCount="3" stopTime="0.00" timeLoss="77.34" rerouteNo="0" devices="tripinfo_flow6.1" vType="vtypeauto" speedFactor="1.12" vaporized=""/>
    <tripinfo id="flow6.3" depart="8.40" departLane="D4D3_0" departPos="4.10" departSpeed="0.00" departDelay="5.40" arrival="105.00" arrivalLane="D1D0_1" arrivalPos="72.80" arrivalSpeed="13.07" duration="96.60" routeLength="368.70" waitingTime="47.50" waitingCount="2" stopTime="0.00" timeLoss="68.58" rerouteNo="0" devices="tripinfo_flow6.3" vType="vtypeauto" speedFactor="0.95" vaporized=""/>
    <tripinfo id="flow2.13" depart="36.10" departLane="A0A1_0" departPos="4.10" departSpeed="0.00" departDelay="23.10" arrival="107.00" arrivalLane="C3D3_0" arrivalPos="72.80" arrivalSpeed="12.74" duration="70.90" routeLength="512.81" waitingTime="0.70" waitingCount="3" stopTime="0.00" timeLoss="27.02" rerouteNo="0" devices="tripinfo_flow2.13" vType="vtypeauto" speedFactor="0.92" vaporized=""/>
    <tripinfo id="flow2.5" depart="13.90" departLane="A0A1_0" departPos="4.10" departSpeed="0.00" departDelay="8.90" arrival="108.50" arrivalLane="C3D3_0" arrivalPos="72.80" arrivalSpeed="15.37" duration="94.60" routeLength="512.81" waitingTime="13.10" waitingCount="4" stopTime="0.00" timeLoss="60.38" rerouteNo="0" devices="tripinfo_flow2.5" vType="vtypeauto" speedFactor="1.18" vaporized=""/>
    <tripinfo id="flow0.7" depart="12.30" departLane="B4B3_0" departPos="4.10" departSpeed="0.00" departDelay="5.30" arrival="109.30" arrivalLane="B3A3_2" arrivalPos="72.80" arrivalSpeed="11.70" duration="97.00" routeLength="560.63" waitingTime="38.10" waitingCount="1" stopTime="0.00" timeLoss="47.35" rerouteNo="0" devices="tripinfo_flow0.7" vType="vtypeauto" speedFactor="0.85" vaporized=""/>
    <tripinfo id="flow0.0" depart="0.00" departLane="B4B3_0" departPos="4.10" departSpeed="0.00" departDelay="0.00" arrival="110.80" arrivalLane="B3A3_2" arrivalPos="72.80" arrivalSpeed="14.50" duration="110.80" routeLength="560.63" waitingTime="51.70" waitingCount="1" stopTime="0.00" timeLoss="71.00" rerouteNo="0" devices="tripinfo_flow0.0" vType="vtypeauto" speedFactor="1.06" vaporized=""/>
    <tripinfo id="flow2.14" depart="38.90" departLane="A0A1_0" departPos="4.10" departSpeed="0.00" departDelay="24.90" arrival="110.80" arrivalLane="C3D3_0" arrivalPos="72.80" arrivalSpeed="14.74" duration="71.90" routeLength="512.81" waitingTime="0.00" waitingCount="0" stopTime="0.00" timeLoss="34.01" rerouteNo="0" devices="tripinfo_flow2.14" vType="vtypeauto" speedFactor="1.06" vaporized=""/>
    <tripinfo id="flow0.8" depart="13.90" departLane="B4B3_0" departPos="4.10" departSpeed="0.00" departDelay="5.90" arrival="113.60" arrivalLane="B3A3_2" arrivalPos="72.80" arrivalSpeed="12.46" duration="99.70" routeLength="560.63" waitingTime="31.00" waitingCount="6" stopTime="0.00" timeLoss="52.84" rerouteNo="0" devices="tripinfo_flow0.8" vType="vtypeauto" speedFactor="0.90" vaporized=""/>
    <tripinfo id="flow2.3" depart="8.30" departLane="A0A1_0" departPos="4.10" departSpeed="0.00" departDelay="5.30" arrival="113.90" arrivalLane="C3D3_0" arrivalPos="72.80" arrivalSpeed="12.35" duration="105.60" routeLength="512.81" waitingTime="8.10" waitingCount="2" stopTime="0.00" timeLoss="60.12" rerouteNo="0" devices="tripinfo_flow2.3" vType="vtypeauto" speedFactor="0.89" vaporized=""/>
    <tripinfo id="flow4.12" depart="35.20" departLane="C0C1_0" departPos="4.10" departSpeed="0.00" departDelay="23.20" arrival="114.90" arrivalLane="C3C4_2" arrivalPos="72.80" arrivalSpeed="13.93" duration="79.70" routeLength="368.70" waitingTime="44.40" waitingCount="1" stopTime="0.00" timeLoss="53.26" rerouteNo="0" devices="tripinfo_flow4.12" vType="vtypeauto" speedFactor="1.01" vaporized=""/>
    <tripinfo id="flow0.10" depart="18.90" departLane="B4B3_0" departPos="4.10" departSpeed="0.00" departDelay="8.90" arrival="115.20" arrivalLane="B3A3_2" arrivalPos="72.80" arrivalSpeed="14.08" duration="96.30" routeLength="560.63" waitingTime="24.50" waitingCount="5" stopTime="0.00" timeLoss="55.00" rerouteNo="0" devices="tripinfo_flow0.10" vType="vtypeauto" speedFactor="1.02" vaporized=""/>
    <tripinfo id="flow2.8" depart="22.20" departLane="A0A1_0" departPos="4.10" departSpeed="0.00" departDelay="14.20" arrival="115.50" arrivalLane="C3D3_0" arrivalPos="72.80" arrivalSpeed="14.21" duration="93.30" routeLength="512.81" waitingTime="12.80" waitingCount="3" stopTime="0.00" timeLoss="53.84" rerouteNo="0" devices="tripinfo_flow2.8" vType="vtypeauto" speedFactor="1.02" vaporized=""/>
    <tripinfo id="flow4.10" depart="29.40" departLane="C0C1_0" departPos="4.10" departSpeed="0.00" departDelay="19.40" arrival="115.50" arrivalLane="C3C4_0" arrivalPos="72.80" arrivalSpeed="13.18" duration="86.10" routeLength="368.70" waitingTime="50.20" waitingCount="1" stopTime="0.00" timeLoss="58.28" rerouteNo="0" devices="tripinfo_flow4.10" vType="vtypeauto" speedFactor="0.96" vaporized=""/>
    <tripinfo id="flow4.13" depart="38.10" departLane="C0C1_0" departPos="4.10" departSpeed="0.00" departDelay="25.10" arrival="116.30" arrivalLane="C3C4_1" arrivalPos="72.80" arrivalSpeed="14.66" duration="78.20" routeLength="368.70" waitingTime="39.70" waitingCount="1" stopTime="0.00" timeLoss="53.07" rerouteNo="0" devices="tripinfo_flow4.13" vType="vtypeauto" speedFactor="1.06" vaporized=""/>
    <tripinfo id="flow4.15" depart="43.90" departLane="C0C1_0" departPos="4.10" departSpeed="0.00" departDelay="28.90" arrival="116.90" arrivalLane="C3C4_2" arrivalPos="72.80" arrivalSpeed="13.30" duration="73.00" routeLength="368.70" waitingTime="32.80" waitingCount="1" stopTime="0.00" timeLoss="45.32" rerouteNo="0" devices="tripinfo_flow4.15" vType="vtypeauto" speedFactor="0.96" vaporized=""/>
    <tripinfo id="flow4.16" depart="46.80" departLane="C0C1_0" departPos="4.10" departSpeed="0.00" departDelay="30.80" arrival="117.80" arrivalLane="C3C4_1" arrivalPos="72.80" arrivalSpeed="16.24" duration="71.00" routeLength="368.70" waitingTime="32.20" waitingCount="1" stopTime="0.00" timeLoss="48.37" rerouteNo="0" devices="tripinfo_flow4.16" vType="vtypeauto" speedFactor="1.18" vaporized=""/>
    <tripinfo id="flow2.9" depart="25.00" departLane="A0A1_0" departPos="4.10" departSpeed="0.00" departDelay="16.00" arrival="118.40" arrivalLane="C3D3_0" arrivalPos="72.80" arrivalSpeed="12.21" duration="93.40" routeLength="512.81" waitingTime="11.60" waitingCount="4" stopTime="0.00" timeLoss="47.73" rerouteNo="0" devices="tripinfo_flow2.9" vType="vtypeauto" speedFactor="0.88" vaporized=""/>
    <tripinfo id="flow4.18" depart="52.60" departLane="C0C1_0" departPos="4.10" departSpeed="0.00" departDelay="34.60" arrival="118.40" arrivalLane="C3C4_2" arrivalPos="72.80" arrivalSpeed="14.22" duration="65.80" routeLength="368.70" waitingTime="25.70" waitingCount="1" stopTime="0.00" timeLoss="40.09" rerouteNo="0" devices="tripinfo_flow4.18" vType="vtypeauto" speedFactor="1.03" vaporized=""/>
    <tripinfo id="flow0.1" depart="1.40" departLane="B4B3_0" departPos="4.10" departSpeed="0.00" departDelay="0.40" arrival="119.60" arrivalLane="B3A3_2" arrivalPos="72.80" arrivalSpeed="12.30" duration="118.20" routeLength="560.63" waitingTime="47.50" waitingCount="4" stopTime="0.00" timeLoss="70.57" rerouteNo="0" devices="tripinfo_flow0.1" vType="vtypeauto" speedFactor="0.89" vaporized=""/>
    <tripinfo id="flow4.19" depart="55.50" departLane="C0C1_0" departPos="4.10" departSpeed="0.00" departDelay="36.50" arrival="119.60" arrivalLane="C3C4_1" arrivalPos="72.80" arrivalSpeed="14.01" duration="64.10" routeLength="368.70" waitingTime="24.10" waitingCount="1" stopTime="0.00" timeLoss="37.93" rerouteNo="0" devices="tripinfo_flow4.19" vType="vtypeauto" speedFactor="1.02" vaporized=""/>
    <tripinfo id="flow2.10" depart="27.80" departLane="A0A1_0" departPos="4.10" departSpeed="0.00" departDelay="17.80" arrival="120.30" arrivalLane="C3D3_0" arrivalPos="72.80" arrivalSpeed="12.97" duration="92.50" routeLength="512.81" waitingTime="12.40" waitingCount="3" stopTime="0.00" timeLoss="49.68" rerouteNo="0" devices="tripinfo_flow2.10" vType="vtypeauto" speedFactor="0.94" vaporized=""/>
    <tripinfo id="flow4.17" depart="49.70" departLane="C0C1_0" departPos="4.10" departSpeed="0.00" departDelay="32.70" arrival="121.60" arrivalLane="C3C4_1" arrivalPos="72.80" arrivalSpeed="14.13" duration="71.90" routeLength="368.70" waitingTime="30.20" waitingCount="1" stopTime="0.00" timeLoss="45.90" rerouteNo="0" devices="tripinfo_flow4.17" vType="vtypeauto" speedFactor="1.02" vaporized=""/>
    <tripinfo id="flow4.9" depart="26.50" departLane="C0C1_0" departPos="4.10" departSpeed="0.00" departDelay="17.50" arrival="123.00" arrivalLane="C3C4_0" arrivalPos="72.80" arrivalSpeed="12.63" duration="96.50" routeLength="368.70" waitingTime="53.30" waitingCount="1" stopTime="0.00" timeLoss="67.47" rerouteNo="0" devices="tripinfo_flow4.9" vType="vtypeauto" speedFactor="0.91" vaporized=""/>
    <tripinfo id="flow4.14" depart="40.90" departLane="C0C1_0" departPos="4.10" departSpeed="0.00" departDelay="26.90" arrival="123.90" arrivalLane="C3C4_1" arrivalPos="72.80" arrivalSpeed="13.40" duration="83.00" routeLength="368.70" waitingTime="37.50" waitingCount="1" stopTime="0.00" timeLoss="55.53" rerouteNo="0" devices="tripinfo_flow4.14" vType="vtypeauto" speedFactor="0.97" vaporized=""/>
    <tripinfo id="flow4.11" depart="32.30" departLane="C0C1_0" departPos="4.10" departSpeed="0.00" departDelay="21.30" arrival="124.60" arrivalLane="C3C4_0" arrivalPos="72.80" arrivalSpeed="13.80" duration="92.30" routeLength="368.70" waitingTime="45.20" waitingCount="1" stopTime="0.00" timeLoss="65.62" rerouteNo="0" devices="tripinfo_flow4.11" vType="vtypeauto" speedFactor="1.00" vaporized=""/>
    <tripinfo id="flow1.19" depart="52.90" departLane="A3B3_0" departPos="4.10" departSpeed="0.00" departDelay="33.90" arrival="137.10" arrivalLane="D3E3_0" arrivalPos="72.80" arrivalSpeed="16.98" duration="84.20" routeLength="368.70" waitingTime="47.30" waitingCount="2" stopTime="0.00" timeLoss="62.52" rerouteNo="0" devices="tripinfo_flow1.19" vType="vtypeauto" speedFactor="1.23" vaporized=""/>
    <tripinfo id="flow1.21" depart="58.50" departLane="A3B3_0" departPos="4.10" departSpeed="0.00" departDelay="37.50" arrival="139.20" arrivalLane="D3E3_2" arrivalPos="72.80" arrivalSpeed="13.42" duration="80.70" routeLength="368.70" waitingTime="40.90" waitingCount="2" stopTime="0.00" timeLoss="53.24" rerouteNo="0" devices="tripinfo_flow1.21" vType="vtypeauto" speedFactor="0.97" vaporized=""/>
    <tripinfo id="flow1.22" depart="61.30" departLane="A3B3_0" departPos="4.10" departSpeed="0.00" departDelay="39.30" arrival="139.20" arrivalLane="D3E3_1" arrivalPos="72.80" arrivalSpeed="15.59" duration="77.90" routeLength="368.70" waitingTime="31.80" waitingCount="2" stopTime="0.00" timeLoss="54.20" rerouteNo="0" devices="tripinfo_flow1.22" vType="vtypeauto" speedFactor="1.12" vaporized=""/>
    <tripinfo id="flow1.25" depart="69.70" departLane="A3B3_0" departPos="4.10" departSpeed="0.00" departDelay="44.70" arrival="140.90" arrivalLane="D3E3_1" arrivalPos="72.80" arrivalSpeed="15.11" duration="71.20" routeLength="368.70" waitingTime="22.90" waitingCount="2" stopTime="0.00" timeLoss="46.75" rerouteNo="0" devices="tripinfo_flow1.25" vType="vtypeauto" speedFactor="1.09" vaporized=""/>
    <tripinfo id="flow1.24" depart="66.90" departLane="A3B3_0" departPos="4.10" departSpeed="0.00" departDelay="42.90" arrival="141.10" arrivalLane="D3E3_2" arrivalPos="72.80" arrivalSpeed="13.04" duration="74.20" routeLength="368.70" waitingTime="25.80" waitingCount="2" stopTime="0.00" timeLoss="45.88" rerouteNo="0" devices="tripinfo_flow1.24" vType="vtypeauto" speedFactor="0.94" vaporized=""/>
    <tripinfo id="flow1.18" depart="50.10" departLane="A3B3_0" departPos="4.10" departSpeed="0.00" departDelay="32.10" arrival="141.40" arrivalLane="D3E3_0" arrivalPos="72.80" arrivalSpeed="11.32" duration="91.30" routeLength="368.70" waitingTime="49.00" waitingCount="2" stopTime="0.00" timeLoss="58.99" rerouteNo="0" devices="tripinfo_flow1.18" vType="vtypeauto" speedFactor="0.82" vaporized=""/>
    <tripinfo id="flow1.20" depart="55.70" departLane="A3B3_0" departPos="4.10" departSpeed="0.00" departDelay="35.70" arrival="142.90" arrivalLane="D3E3_0" arrivalPos="72.80" arrivalSpeed="14.19" duration="87.20" routeLength="368.70" waitingTime="36.70" waitingCount="2" stopTime="0.00" timeLoss="64.40" rerouteNo="0" devices="tripinfo_flow1.20" vType="vtypeauto" speedFactor="1.16" vaporized=""/>
    <tripinfo id="flow1.27" depart="75.20" departLane="A3B3_0" departPos="4.10" departSpeed="0.00" departDelay="48.20" arrival="143.10" arrivalLane="D3E3_2" arrivalPos="72.80" arrivalSpeed="12.44" duration="67.90" routeLength="368.70" waitingTime="16.90" waitingCount="2" stopTime="0.00" timeLoss="38.41" rerouteNo="0" devices="tripinfo_flow1.27" vType="vtypeauto" speedFactor="0.90" vaporized=""/>
    <tripinfo id="flow6.19" depart="53.30" departLane="D4D3_0" departPos="4.10" departSpeed="0.00" departDelay="34.30" arrival="143.90" arrivalLane="D1D0_2" arrivalPos="72.80" arrivalSpeed="13.24" duration="90.60" routeLength="368.70" waitingTime="50.30" waitingCount="1" stopTime="0.00" timeLoss="62.73" rerouteNo="0" devices="tripinfo_flow6.19" vType="vtypeauto" speedFactor="0.95" vaporized=""/>