<?xml version="1.0" encoding="UTF-8"?>

<!-- generated on 2024-10-29 12:39:08 by Eclipse SUMO sumo Version 1.20.0
<configuration xmlns:xsi="http://www.w3.org/2001/XMLSchema-instance" xsi:noNamespaceSchemaLocation="http://sumo.dlr.de/xsd/sumoConfiguration.xsd">

    <input>
        <net-file value="./sim_cfg_grid_3_lanes/grid.net.xml"/>
        <route-files value="./sim_cfg_grid_3_lanes/3x1.rou.xml"/>
    </input>

    <output>
        <tripinfo-output value="./sim_cfg_grid_3_lanes/tripinfo_0.346.xml"/>
    </output>

    <time>
        <begin value="0"/>
        <end value="500"/>
        <step-length value="0.1"/>
    </time>

    <traci_server>
        <remote-port value="49575"/>
    </traci_server>

    <gui_only>
        <gui-settings-file value="./sim_cfg_grid_3_lanes/gui_settings.xml"/>
    </gui_only>

</configuration>
-->

<tripinfos xmlns:xsi="http://www.w3.org/2001/XMLSchema-instance" xsi:noNamespaceSchemaLocation="http://sumo.dlr.de/xsd/tripinfo_file.xsd">
    <tripinfo id="flow1.3" depart="8.40" departLane="A3B3_0" departPos="4.10" departSpeed="0.00" departDelay="5.40" arrival="50.50" arrivalLane="D3E3_2" arrivalPos="72.80" arrivalSpeed="15.10" duration="42.10" routeLength="368.70" waitingTime="7.70" waitingCount="1" stopTime="0.00" timeLoss="17.73" rerouteNo="0" devices="tripinfo_flow1.3" vType="vtypeauto" speedFactor="1.09" vaporized=""/>
    <tripinfo id="flow1.1" depart="2.80" departLane="A3B3_0" departPos="4.10" departSpeed="0.00" departDelay="1.80" arrival="50.60" arrivalLane="D3E3_1" arrivalPos="72.80" arrivalSpeed="14.20" duration="47.80" routeLength="368.70" waitingTime="9.00" waitingCount="2" stopTime="0.00" timeLoss="21.97" rerouteNo="0" devices="tripinfo_flow1.1" vType="vtypeauto" speedFactor="1.03" vaporized=""/>
    <tripinfo id="flow1.0" depart="0.00" departLane="A3B3_0" departPos="4.10" departSpeed="0.00" departDelay="0.00" arrival="51.00" arrivalLane="D3E3_0" arrivalPos="72.80" arrivalSpeed="12.93" duration="51.00" routeLength="368.70" waitingTime="11.20" waitingCount="2" stopTime="0.00" timeLoss="22.64" rerouteNo="0" devices="tripinfo_flow1.0" vType="vtypeauto" speedFactor="0.94" vaporized=""/>
    <tripinfo id="flow1.4" depart="11.20" departLane="A3B3_0" departPos="4.10" departSpeed="0.00" departDelay="7.20" arrival="51.90" arrivalLane="D3E3_2" arrivalPos="72.80" arrivalSpeed="15.56" duration="40.70" routeLength="368.70" waitingTime="2.40" waitingCount="1" stopTime="0.00" timeLoss="17.06" rerouteNo="0" devices="tripinfo_flow1.4" vType="vtypeauto" speedFactor="1.12" vaporized=""/>
    <tripinfo id="flow1.2" depart="5.60" departLane="A3B3_0" departPos="4.10" departSpeed="0.00" departDelay="3.60" arrival="52.70" arrivalLane="D3E3_0" arrivalPos="72.80" arrivalSpeed="12.25" duration="47.10" routeLength="368.70" waitingTime="0.00" waitingCount="0" stopTime="0.00" timeLoss="17.11" rerouteNo="0" devices="tripinfo_flow1.2" vType="vtypeauto" speedFactor="0.89" vaporized=""/>
    <tripinfo id="flow1.5" depart="13.90" departLane="A3B3_0" departPos="4.10" departSpeed="0.00" departDelay="8.90" arrival="52.70" arrivalLane="D3E3_1" arrivalPos="72.80" arrivalSpeed="12.10" duration="38.80" routeLength="368.70" waitingTime="0.00" waitingCount="0" stopTime="0.00" timeLoss="8.57" rerouteNo="0" devices="tripinfo_flow1.5" vType="vtypeauto" speedFactor="0.88" vaporized=""/>
    <tripinfo id="flow1.6" depart="16.60" departLane="A3B3_0" departPos="4.10" departSpeed="0.00" departDelay="10.60" arrival="54.20" arrivalLane="D3E3_0" arrivalPos="72.80" arrivalSpeed="15.11" duration="37.60" routeLength="368.70" waitingTime="0.00" waitingCount="0" stopTime="0.00" timeLoss="14.62" rerouteNo="0" devices="tripinfo_flow1.6" vType="vtypeauto" speedFactor="1.16" vaporized=""/>
    <tripinfo id="flow1.7" depart="19.40" departLane="A3B3_0" departPos="4.10" departSpeed="0.00" departDelay="12.40" arrival="54.20" arrivalLane="D3E3_1" arrivalPos="72.80" arrivalSpeed="13.46" duration="34.80" routeLength="368.70" waitingTime="0.00" waitingCount="0" stopTime="0.00" timeLoss="7.58" rerouteNo="0" devices="tripinfo_flow1.7" vType="vtypeauto" speedFactor="0.97" vaporized=""/>
    <tripinfo id="flow1.9" depart="24.90" departLane="A3B3_0" departPos="4.10" departSpeed="0.00" departDelay="15.90" arrival="64.60" arrivalLane="D3E3_1" arrivalPos="72.80" arrivalSpeed="15.66" duration="39.70" routeLength="368.70" waitingTime="6.20" waitingCount="1" stopTime="0.00" timeLoss="16.17" rerouteNo="0" devices="tripinfo_flow1.9" vType="vtypeauto" speedFactor="1.13" vaporized=""/>
    <tripinfo id="flow1.11" depart="30.40" departLane="A3B3_0" departPos="4.10" departSpeed="0.00" departDelay="19.40" arrival="65.90" arrivalLane="D3E3_2" arrivalPos="72.80" arrivalSpeed="13.75" duration="35.50" routeLength="368.70" waitingTime="0.00" waitingCount="0" stopTime="0.00" timeLoss="8.78" rerouteNo="0" devices="tripinfo_flow1.11" vType="vtypeauto" speedFactor="0.99" vaporized=""/>
    <tripinfo id="flow1.12" depart="33.30" departLane="A3B3_0" departPos="4.10" departSpeed="0.00" departDelay="21.30" arrival="66.00" arrivalLane="D3E3_1" arrivalPos="72.80" arrivalSpeed="16.32" duration="32.70" routeLength="368.70" waitingTime="0.00" waitingCount="0" stopTime="0.00" timeLoss="10.18" rerouteNo="0" devices="tripinfo_flow1.12" vType="vtypeauto" speedFactor="1.18" vaporized=""/>
    <tripinfo id="flow1.8" depart="22.10" departLane="A3B3_0" departPos="4.10" departSpeed="0.00" departDelay="14.10" arrival="67.60" arrivalLane="D3E3_0" arrivalPos="72.80" arrivalSpeed="12.02" duration="45.50" routeLength="368.70" waitingTime="8.00" waitingCount="1" stopTime="0.00" timeLoss="15.06" rerouteNo="0" devices="tripinfo_flow1.8" vType="vtypeauto" speedFactor="0.87" vaporized=""/>
    <tripinfo id="flow1.14" depart="38.90" departLane="A3B3_0" departPos="4.10" departSpeed="0.00" departDelay="24.90" arrival="68.70" arrivalLane="D3E3_1" arrivalPos="72.80" arrivalSpeed="14.35" duration="29.80" routeLength="368.70" waitingTime="0.00" waitingCount="0" stopTime="0.00" timeLoss="4.14" rerouteNo="0" devices="tripinfo_flow1.14" vType="vtypeauto" speedFactor="1.04" vaporized=""/>
    <tripinfo id="flow1.10" depart="27.60" departLane="A3B3_0" departPos="4.10" departSpeed="0.00" departDelay="17.60" arrival="69.10" arrivalLane="D3E3_0" arrivalPos="72.80" arrivalSpeed="15.04" duration="41.50" routeLength="368.70" waitingTime="1.70" waitingCount="1" stopTime="0.00" timeLoss="18.47" rerouteNo="0" devices="tripinfo_flow1.10" vType="vtypeauto" speedFactor="1.15" vaporized=""/>
    <tripinfo id="flow1.13" depart="36.10" departLane="A3B3_0" departPos="4.10" departSpeed="0.00" departDelay="23.10" arrival="70.60" arrivalLane="D3E3_0" arrivalPos="72.80" arrivalSpeed="14.21" duration="34.50" routeLength="368.70" waitingTime="0.00" waitingCount="0" stopTime="0.00" timeLoss="8.69" rerouteNo="0" devices="tripinfo_flow1.13" vType="vtypeauto" speedFactor="1.03" vaporized=""/>
    <tripinfo id="flow1.15" depart="41.70" departLane="A3B3_0" departPos="4.10" departSpeed="0.00" departDelay="26.70" arrival="72.20" arrivalLane="D3E3_0" arrivalPos="72.80" arrivalSpeed="13.80" duration="30.50" routeLength="368.70" waitingTime="0.00" waitingCount="0" stopTime="0.00" timeLoss="3.85" rerouteNo="0" devices="tripinfo_flow1.15" vType="vtypeauto" speedFactor="1.00" vaporized=""/>
    <tripinfo id="flow2.0" depart="0.00" departLane="A0A1_0" departPos="4.10" departSpeed="0.00" departDelay="0.00" arrival="83.60" arrivalLane="C3D3_0" arrivalPos="72.80" arrivalSpeed="8.33" duration="83.60" routeLength="512.81" waitingTime="26.50" waitingCount="2" stopTime="0.00" timeLoss="43.78" rerouteNo="0" devices="tripinfo_flow2.0" vType="vtypeauto" speedFactor="1.01" vaporized=""/>
    <tripinfo id="flow2.1" depart="2.80" departLane="A0A1_0" departPos="4.10" departSpeed="0.00" departDelay="1.80" arrival="85.30" arrivalLane="C3D3_0" arrivalPos="72.80" arrivalSpeed="10.60" duration="82.50" routeLength="512.81" waitingTime="12.00" waitingCount="1" stopTime="0.00" timeLoss="33.92" rerouteNo="0" devices="tripinfo_flow2.1" vType="vtypeauto" speedFactor="0.83" vaporized=""/>
    <tripinfo id="flow2.2" depart="5.50" departLane="A0A1_0" departPos="4.10" departSpeed="0.00" departDelay="3.50" arrival="86.80" arrivalLane="C3D3_0" arrivalPos="72.80" arrivalSpeed="12.50" duration="81.30" routeLength="512.81" waitingTime="10.30" waitingCount="1" stopTime="0.00" timeLoss="38.30" rerouteNo="0" devices="tripinfo_flow2.2" vType="vtypeauto" speedFactor="0.94" vaporized=""/>
    <tripinfo id="flow2.3" depart="8.30" departLane="A0A1_0" departPos="4.10" departSpeed="0.00" departDelay="5.30" arrival="88.20" arrivalLane="C3D3_0" arrivalPos="72.80" arrivalSpeed="14.02" duration="79.90" routeLength="512.81" waitingTime="8.90" waitingCount="1" stopTime="0.00" timeLoss="40.58" rerouteNo="0" devices="tripinfo_flow2.3" vType="vtypeauto" speedFactor="1.03" vaporized=""/>
    <tripinfo id="flow1.17" depart="47.20" departLane="A3B3_0" departPos="4.10" departSpeed="0.00" departDelay="30.20" arrival="88.70" arrivalLane="D3E3_1" arrivalPos="72.80" arrivalSpeed="14.11" duration="41.50" routeLength="368.70" waitingTime="4.80" waitingCount="1" stopTime="0.00" timeLoss="15.32" rerouteNo="0" devices="tripinfo_flow1.17" vType="vtypeauto" speedFactor="1.02" vaporized=""/>
    <tripinfo id="flow1.16" depart="44.50" departLane="A3B3_0" departPos="4.10" departSpeed="0.00" departDelay="28.50" arrival="89.50" arrivalLane="D3E3_0" arrivalPos="72.80" arrivalSpeed="11.78" duration="45.00" routeLength="368.70" waitingTime="7.20" waitingCount="1" stopTime="0.00" timeLoss="13.73" rerouteNo="0" devices="tripinfo_flow1.16" vType="vtypeauto" speedFactor="0.85" vaporized=""/>
    <tripinfo id="flow2.4" depart="11.00" departLane="A0A1_0" departPos="4.10" departSpeed="0.00" departDelay="7.00" arrival="89.70" arrivalLane="C3D3_0" arrivalPos="72.80" arrivalSpeed="13.71" duration="78.70" routeLength="512.81" waitingTime="7.70" waitingCount="1" stopTime="0.00" timeLoss="37.99" rerouteNo="0" devices="tripinfo_flow2.4" vType="vtypeauto" speedFactor="0.99" vaporized=""/>
    <tripinfo id="flow1.18" depart="50.00" departLane="A3B3_0" departPos="4.10" departSpeed="0.00" departDelay="32.00" arrival="91.00" arrivalLane="D3E3_0" arrivalPos="72.80" arrivalSpeed="13.72" duration="41.00" routeLength="368.70" waitingTime="0.80" waitingCount="1" stopTime="0.00" timeLoss="14.31" rerouteNo="0" devices="tripinfo_flow1.18" vType="vtypeauto" speedFactor="1.00" vaporized=""/>
    <tripinfo id="flow2.5" depart="13.80" departLane="A0A1_0" departPos="4.10" departSpeed="0.00" departDelay="8.80" arrival="91.80" arrivalLane="C3D3_0" arrivalPos="72.80" arrivalSpeed="12.98" duration="78.00" routeLength="512.81" waitingTime="6.60" waitingCount="1" stopTime="0.00" timeLoss="35.08" rerouteNo="0" devices="tripinfo_flow2.5" vType="vtypeauto" speedFactor="0.94" vaporized=""/>
    <tripinfo id="flow2.6" depart="16.50" departLane="A0A1_0" departPos="4.10" departSpeed="0.00" departDelay="10.50" arrival="93.60" arrivalLane="C3D3_0" arrivalPos="72.80" arrivalSpeed="14.04" duration="77.10" routeLength="512.81" waitingTime="12.10" waitingCount="1" stopTime="0.00" timeLoss="37.42" rerouteNo="0" devices="tripinfo_flow2.6" vType="vtypeauto" speedFactor="1.02" vaporized=""/>
    <tripinfo id="flow2.9" depart="24.90" departLane="A0A1_0" departPos="4.10" departSpeed="0.00" departDelay="15.90" arrival="96.30" arrivalLane="C3D3_0" arrivalPos="72.80" arrivalSpeed="12.82" duration="71.40" routeLength="512.81" waitingTime="6.00" waitingCount="3" stopTime="0.00" timeLoss="28.08" rerouteNo="0" devices="tripinfo_flow2.9" vType="vtypeauto" speedFactor="0.93" vaporized=""/>
    <tripinfo id="flow2.7" depart="19.30" departLane="A0A1_0" departPos="4.10" departSpeed="0.00" departDelay="12.30" arrival="98.90" arrivalLane="C3D3_0" arrivalPos="72.80" arrivalSpeed="12.24" duration="79.60" routeLength="512.81" waitingTime="9.50" waitingCount="4" stopTime="0.00" timeLoss="34.24" rerouteNo="0" devices="tripinfo_flow2.7" vType="vtypeauto" speedFactor="0.89" vaporized=""/>
    <tripinfo id="flow2.8" depart="22.10" departLane="A0A1_0" departPos="4.10" departSpeed="0.00" departDelay="14.10" arrival="101.20" arrivalLane="C3D3_0" arrivalPos="72.80" arrivalSpeed="12.64" duration="79.10" routeLength="512.81" waitingTime="14.00" waitingCount="1" stopTime="0.00" timeLoss="35.05" rerouteNo="0" devices="tripinfo_flow2.8" vType="vtypeauto" speedFactor="0.92" vaporized=""/>
    <tripinfo id="flow2.11" depart="30.50" departLane="A0A1_0" departPos="4.10" departSpeed="0.00" departDelay="19.50" arrival="102.90" arrivalLane="C3D3_0" arrivalPos="72.80" arrivalSpeed="14.14" duration="72.40" routeLength="512.81" waitingTime="9.70" waitingCount="2" stopTime="0.00" timeLoss="32.85" rerouteNo="0" devices="tripinfo_flow2.11" vType="vtypeauto" speedFactor="1.02" vaporized=""/>
    <tripinfo id="flow2.10" depart="27.70" departLane="A0A1_0" departPos="4.10" departSpeed="0.00" departDelay="17.70" arrival="105.10" arrivalLane="C3D3_0" arrivalPos="72.80" arrivalSpeed="13.89" duration="77.40" routeLength="512.81" waitingTime="9.10" waitingCount="4" stopTime="0.00" timeLoss="37.26" rerouteNo="0" devices="tripinfo_flow2.10" vType="vtypeauto" speedFactor="1.01" vaporized=""/>
    <tripinfo id="flow2.13" depart="36.10" departLane="A0A1_0" departPos="4.10" departSpeed="0.00" departDelay="23.10" arrival="107.70" arrivalLane="C3D3_0" arrivalPos="72.80" arrivalSpeed="13.28" duration="71.60" routeLength="512.81" waitingTime="9.10" waitingCount="1" stopTime="0.00" timeLoss="29.45" rerouteNo="0" devices="tripinfo_flow2.13" vType="vtypeauto" speedFactor="0.96" vaporized=""/>
    <tripinfo id="flow2.12" depart="33.30" departLane="A0A1_0" departPos="4.10" departSpeed="0.00" departDelay="21.30" arrival="109.20" arrivalLane="C3D3_0" arrivalPos="72.80" arrivalSpeed="15.23" duration="75.90" routeLength="512.81" waitingTime="7.40" waitingCount="2" stopTime="0.00" timeLoss="39.27" rerouteNo="0" devices="tripinfo_flow2.12" vType="vtypeauto" speedFactor="1.10" vaporized=""/>
    <tripinfo id="flow2.14" depart="38.90" departLane="A0A1_0" departPos="4.10" departSpeed="0.00" departDelay="24.90" arrival="111.50" arrivalLane="C3D3_0" arrivalPos="72.80" arrivalSpeed="14.47" duration="72.60" routeLength="512.81" waitingTime="11.10" waitingCount="2" stopTime="0.00" timeLoss="33.93" rerouteNo="0" devices="tripinfo_flow2.14" vType="vtypeauto" speedFactor="1.04" vaporized=""/>
    <tripinfo id="flow2.15" depart="41.60" departLane="A0A1_0" departPos="4.10" departSpeed="0.00" departDelay="26.60" arrival="114.60" arrivalLane="C3D3_0" arrivalPos="72.80" arrivalSpeed="12.42" duration="73.00" routeLength="512.81" waitingTime="6.90" waitingCount="3" stopTime="0.00" timeLoss="28.16" rerouteNo="0" devices="tripinfo_flow2.15" vType="vtypeauto" speedFactor="0.90" vaporized=""/>
    <tripinfo id="flow0.9" depart="17.00" departLane="B4B3_0" departPos="4.10" departSpeed="0.00" departDelay="8.00" arrival="118.40" arrivalLane="B3A3_2" arrivalPos="72.80" arrivalSpeed="13.12" duration="101.40" routeLength="560.63" waitingTime="29.60" waitingCount="5" stopTime="0.00" timeLoss="56.92" rerouteNo="0" devices="tripinfo_flow0.9" vType="vtypeauto" speedFactor="0.95" vaporized=""/>
    <tripinfo id="flow2.16" depart="44.40" departLane="A0A1_0" departPos="4.10" departSpeed="0.00" departDelay="28.40" arrival="128.00" arrivalLane="C3D3_0" arrivalPos="72.80" arrivalSpeed="11.76" duration="83.60" routeLength="512.81" waitingTime="21.20" waitingCount="2" stopTime="0.00" timeLoss="36.44" rerouteNo="0" devices="tripinfo_flow2.16" vType="vtypeauto" speedFactor="0.85" vaporized=""/>
    <tripinfo id="flow2.17" depart="47.20" departLane="A0A1_0" departPos="4.10" departSpeed="0.00" departDelay="30.20" arrival="129.70" arrivalLane="C3D3_0" arrivalPos="72.80" arrivalSpeed="15.15" duration="82.50" routeLength="512.81" waitingTime="19.40" waitingCount="3" stopTime="0.00" timeLoss="45.65" rerouteNo="0" devices="tripinfo_flow2.17" vType="vtypeauto" speedFactor="1.10" vaporized=""/>
    <tripinfo id="flow2.18" depart="50.00" departLane="A0A1_0" departPos="4.10" departSpeed="0.00" departDelay="32.00" arrival="132.30" arrivalLane="C3D3_0" arrivalPos="72.80" arrivalSpeed="12.42" duration="82.30" routeLength="512.81" waitingTime="11.20" waitingCount="1" stopTime="0.00" timeLoss="37.38" rerouteNo="0" devices="tripinfo_flow2.18" vType="vtypeauto" speedFactor="0.90" vaporized=""/>
    <tripinfo id="flow2.20" depart="55.50" departLane="A0A1_0" departPos="4.10" departSpeed="0.00" departDelay="35.50" arrival="134.00" arrivalLane="C3D3_0" arrivalPos="72.80" arrivalSpeed="14.02" duration="78.50" routeLength="512.81" waitingTime="12.30" waitingCount="5" stopTime="0.00" timeLoss="38.72" rerouteNo="0" devices="tripinfo_flow2.20" vType="vtypeauto" speedFactor="1.02" vaporized=""/>
    <tripinfo id="flow0.0" depart="0.00" departLane="B4B3_0" departPos="4.10" departSpeed="0.00" departDelay="0.00" arrival="134.90" arrivalLane="B3A3_2" arrivalPos="72.80" arrivalSpeed="14.61" duration="134.90" routeLength="560.63" waitingTime="66.30" waitingCount="4" stopTime="0.00" timeLoss="95.08" rerouteNo="0" devices="tripinfo_flow0.0" vType="vtypeauto" speedFactor="1.06" vaporized=""/>
    <tripinfo id="flow2.21" depart="58.30" departLane="A0A1_0" departPos="4.10" departSpeed="0.00" departDelay="37.30" arrival="136.90" arrivalLane="C3D3_0" arrivalPos="72.80" arrivalSpeed="12.17" duration="78.60" routeLength="512.81" waitingTime="8.50" waitingCount="4" stopTime="0.00" timeLoss="32.98" rerouteNo="0" devices="tripinfo_flow2.21" vType="vtypeauto" speedFactor="0.88" vaporized=""/>
    <tripinfo id="flow0.7" depart="11.10" departLane="B4B3_0" departPos="4.10" departSpeed="0.00" departDelay="4.10" arrival="138.40" arrivalLane="B3A3_2" arrivalPos="72.80" arrivalSpeed="13.99" duration="127.30" routeLength="560.63" waitingTime="50.40" waitingCount="11" stopTime="0.00" timeLoss="85.54" rerouteNo="0" devices="tripinfo_flow0.7" vType="vtypeauto" speedFactor="1.01" vaporized=""/>
    <tripinfo id="flow2.22" depart="61.10" departLane="A0A1_0" departPos="4.10" departSpeed="0.00" departDelay="39.10" arrival="138.50" arrivalLane="C3D3_0" arrivalPos="72.80" arrivalSpeed="14.34" duration="77.40" routeLength="512.81" waitingTime="3.50" waitingCount="3" stopTime="0.00" timeLoss="38.60" rerouteNo="0" devices="tripinfo_flow2.22" vType="vtypeauto" speedFactor="1.04" vaporized=""/>
    <tripinfo id="flow2.19" depart="52.80" departLane="A0A1_0" departPos="4.10" departSpeed="0.00" departDelay="33.80" arrival="140.80" arrivalLane="C3D3_0" arrivalPos="72.80" arrivalSpeed="13.40" duration="88.00" routeLength="512.81" waitingTime="13.50" waitingCount="3" stopTime="0.00" timeLoss="46.41" rerouteNo="0" devices="tripinfo_flow2.19" vType="vtypeauto" speedFactor="0.97" vaporized=""/>
    <tripinfo id="flow2.23" depart="63.90" departLane="A0A1_0" departPos="4.10" departSpeed="0.00" departDelay="40.90" arrival="143.10" arrivalLane="C3D3_0" arrivalPos="72.80" arrivalSpeed="13.41" duration="79.20" routeLength="512.81" waitingTime="3.90" waitingCount="5" stopTime="0.00" timeLoss="37.68" rerouteNo="0" devices="tripinfo_flow2.23" vType="vtypeauto" speedFactor="0.97" vaporized=""/>
    <tripinfo id="flow0.10" depart="17.50" departLane="B4B3_0" departPos="4.10" departSpeed="0.00" departDelay="7.50" arrival="143.90" arrivalLane="B3A3_2" arrivalPos="72.80" arrivalSpeed="16.29" duration="126.40" routeLength="560.63" waitingTime="35.60" waitingCount="13" stopTime="0.00" timeLoss="90.59" rerouteNo="0" devices="tripinfo_flow0.10" vType="vtypeauto" speedFactor="1.18" vaporized=""/>
    <tripinfo id="flow2.26" depart="72.10" departLane="A0A1_0" departPos="4.10" departSpeed="0.00" departDelay="46.10" arrival="145.10" arrivalLane="C3D3_0" arrivalPos="72.80" arrivalSpeed="14.26" duration="73.00" routeLength="512.81" waitingTime="4.20" waitingCount="2" stopTime="0.00" timeLoss="33.87" rerouteNo="0" devices="tripinfo_flow2.26" vType="vtypeauto" speedFactor="1.03" vaporized=""/>
    <tripinfo id="flow0.1" depart="1.40" departLane="B4B3_0" departPos="4.10" departSpeed="0.00" departDelay="0.40" arrival="146.90" arrivalLane="B3A3_2" arrivalPos="72.80" arrivalSpeed="15.03" duration="145.50" routeLength="560.63" waitingTime="59.70" waitingCount="7" stopTime="0.00" timeLoss="106.53" rerouteNo="0" devices="tripinfo_flow0.1" vType="vtypeauto" speedFactor="1.08" vaporized=""/>
    <tripinfo id="flow2.25" depart="69.40" departLane="A0A1_0" departPos="4.10" departSpeed="0.00" departDelay="44.40" arrival="147.40" arrivalLane="C3D3_0" arrivalPos="72.80" arrivalSpeed="13.59" duration="78.00" routeLength="512.81" waitingTime="2.60" waitingCount="1" stopTime="0.00" timeLoss="36.91" rerouteNo="0" devices="tripinfo_flow2.25" vType="vtypeauto" speedFactor="0.98" vaporized=""/>
    <tripinfo id="flow2.27" depart="74.90" departLane="A0A1_0" departPos="4.10" departSpeed="0.00" departDelay="47.90" arrival="150.00" arrivalLane="C3D3_0" arrivalPos="72.80" arrivalSpeed="13.35" duration="75.10" routeLength="512.81" waitingTime="5.30" waitingCount="1" stopTime="0.00" timeLoss="33.36" rerouteNo="0" devices="tripinfo_flow2.27" vType="vtypeauto" speedFactor="0.97" vaporized=""/>
    <tripinfo id="flow2.24" depart="66.60" departLane="A0A1_0" departPos="4.10" departSpeed="0.00" departDelay="42.60" arrival="152.30" arrivalLane="C3D3_0" arrivalPos="72.80" arrivalSpeed="13.21" duration="85.70" routeLength="512.81" waitingTime="6.70" waitingCount="2" stopTime="0.00" timeLoss="43.56" rerouteNo="0" devices="tripinfo_flow2.24" vType="vtypeauto" speedFactor="0.96" vaporized=""/>
    <tripinfo id="flow2.28" depart="77.70" departLane="A0A1_0" departPos="4.10" departSpeed="0.00" departDelay="49.70" arrival="154.80" arrivalLane="C3D3_0" arrivalPos="72.80" arrivalSpeed="13.90" duration="77.10" routeLength="512.81" waitingTime="7.80" waitingCount="4" stopTime="0.00" timeLoss="36.80" rerouteNo="0" devices="tripinfo_flow2.28" vType="vtypeauto" speedFactor="1.00" vaporized=""/>
    <tripinfo id="flow2.29" depart="80.40" departLane="A0A1_0" departPos="4.10" departSpeed="0.00" departDelay="51.40" arrival="157.20" arrivalLane="C3D3_0" arrivalPos="72.80" arrivalSpeed="14.14" duration="76.80" routeLength="512.81" waitingTime="4.70" waitingCount="1" stopTime="0.00" timeLoss="37.27" rerouteNo="0" devices="tripinfo_flow2.29" vType="vtypeauto" speedFactor="1.02" vaporized=""/>
    <tripinfo id="flow2.30" depart="83.10" departLane="A0A1_0" departPos="4.10" departSpeed="0.00" departDelay="53.10" arrival="160.80" arrivalLane="C3D3_0" arrivalPos="72.80" arrivalSpeed="11.53" duration="77.70" routeLength="512.81" waitingTime="1.40" waitingCount="1" stopTime="0.00" timeLoss="29.35" rerouteNo="0" devices="tripinfo_flow2.30" vType="vtypeauto" speedFactor="0.83" vaporized=""/>
    <tripinfo id="flow0.16" depart="32.40" departLane="B4B3_0" departPos="4.10" departSpeed="0.00" departDelay="16.40" arrival="161.50" arrivalLane="B3A3_2" arrivalPos="72.80" arrivalSpeed="12.14" duration="129.10" routeLength="560.63" waitingTime="43.40" waitingCount="10" stopTime="0.00" timeLoss="80.98" rerouteNo="0" devices="tripinfo_flow0.16" vType="vtypeauto" speedFactor="0.88" vaporized=""/>
    <tripinfo id="flow2.33" depart="91.40" departLane="A0A1_0" departPos="4.10" departSpeed="0.00" departDelay="58.40" arrival="162.80" arrivalLane="C3D3_0" arrivalPos="72.80" arrivalSpeed="13.26" duration="71.40" routeLength="512.81" waitingTime="6.10" waitingCount="1" stopTime="0.00" timeLoss="29.23" rerouteNo="0" devices="tripinfo_flow2.33" vType="vtypeauto" speedFactor="0.96" vaporized=""/>
    <tripinfo id="flow0.11" depart="20.90" departLane="B4B3_0" departPos="4.10" departSpeed="0.00" departDelay="9.90" arrival="163.00" arrivalLane="B3A3_2" arrivalPos="72.80" arrivalSpeed="14.64" duration="142.10" routeLength="560.63" waitingTime="41.10" waitingCount="11" stopTime="0.00" timeLoss="106.12" rerouteNo="0" devices="tripinfo_flow0.11" vType="vtypeauto" speedFactor="1.17" vaporized=""/>
    <tripinfo id="flow2.37" depart="102.50" departLane="A0A1_0" departPos="4.10" departSpeed="0.00" departDelay="65.50" arrival="165.30" arrivalLane="C3D3_0" arrivalPos="72.80" arrivalSpeed="13.96" duration="62.80" routeLength="512.81" waitingTime="0.00" waitingCount="0" stopTime="0.00" timeLoss="22.80" rerouteNo="0" devices="tripinfo_flow2.37" vType="vtypeauto" speedFactor="1.01" vaporized=""/>
    <tripinfo id="flow0.2" depart="2.90" departLane="B4B3_0" departPos="4.10" departSpeed="0.00" departDelay="0.90" arrival="166.20" arrivalLane="B3A3_2" arrivalPos="72.80" arrivalSpeed="14.43" duration="163.30" routeLength="560.63" waitingTime="69.20" waitingCount="7" stopTime="0.00" timeLoss="122.91" rerouteNo="0" devices="tripinfo_flow0.2" vType="vtypeauto" speedFactor="1.05" vaporized=""/>
    <tripinfo id="flow2.32" depart="88.60" departLane="A0A1_0" departPos="4.10" departSpeed="0.00" departDelay="56.60" arrival="167.10" arrivalLane="C3D3_0" arrivalPos="72.80" arrivalSpeed="15.49" duration="78.50" routeLength="512.81" waitingTime="0.10" waitingCount="1" stopTime="0.00" timeLoss="42.59" rerouteNo="0" devices="tripinfo_flow2.32" vType="vtypeauto" speedFactor="1.12" vaporized=""/>
    <tripinfo id="flow1.20" depart="55.60" departLane="A3B3_0" departPos="4.10" departSpeed="0.00" departDelay="35.60" arrival="190.30" arrivalLane="D3E3_1" arrivalPos="72.80" arrivalSpeed="15.48" duration="134.70" routeLength="368.70" waitingTime="92.00" waitingCount="3" stopTime="0.00" timeLoss="110.99" rerouteNo="0" devices="tripinfo_flow1.20" vType="vtypeauto" speedFactor="1.12" vaporized=""/>
    <tripinfo id="flow1.19" depart="52.80" departLane="A3B3_0" departPos="4.10" departSpeed="0.00" departDelay="33.80" arrival="190.70" arrivalLane="D3E3_0" arrivalPos="72.80" arrivalSpeed="14.18" duration="137.90" routeLength="368.70" waitingTime="94.60" waitingCount="3" stopTime="0.00" timeLoss="111.90" rerouteNo="0" devices="tripinfo_flow1.19" vType="vtypeauto" speedFactor="1.02" vaporized=""/>
    <tripinfo id="flow1.22" depart="61.20" departLane="A3B3_0" departPos="4.10" departSpeed="0.00" departDelay="39.20" arrival="191.10" arrivalLane="D3E3_2" arrivalPos="72.80" arrivalSpeed="12.61" duration="129.90" routeLength="368.70" waitingTime="85.10" waitingCount="3" stopTime="0.00" timeLoss="100.81" rerouteNo="0" devices="tripinfo_flow1.22" vType="vtypeauto" speedFactor="0.91" vaporized=""/>
    <tripinfo id="flow1.23" depart="64.00" departLane="A3B3_0" departPos="4.10" departSpeed="0.00" departDelay="41.00" arrival="192.00" arrivalLane="D3E3_1" arrivalPos="72.80" arrivalSpeed="14.11" duration="128.00" routeLength="368.70" waitingTime="72.00" waitingCount="2" stopTime="0.00" timeLoss="102.03" rerouteNo="0" devices="tripinfo_flow1.23" vType="vtypeauto" speedFactor="1.02" vaporized=""/>
    <tripinfo id="flow1.21" depart="58.40" departLane="A3B3_0" departPos="4.10" departSpeed="0.00" departDelay="37.40" arrival="192.40" arrivalLane="D3E3_0" arrivalPos="72.80" arrivalSpeed="12.99" duration="134.00" routeLength="368.70" waitingTime="77.60" waitingCount="2" stopTime="0.00" timeLoss="105.68" rerouteNo="0" devices="tripinfo_flow1.21" vType="vtypeauto" speedFactor="0.94" vaporized=""/>
    <tripinfo id="flow1.25" depart="69.50" departLane="A3B3_0" departPos="4.10" departSpeed="0.00" departDelay="44.50" arrival="192.60" arrivalLane="D3E3_2" arrivalPos="72.80" arrivalSpeed="14.26" duration="123.10" routeLength="368.70" waitingTime="66.50" waitingCount="2" stopTime="0.00" timeLoss="97.31" rerouteNo="0" devices="tripinfo_flow1.25" vType="vtypeauto" speedFactor="1.03" vaporized=""/>
    <tripinfo id="flow1.26" depart="72.30" departLane="A3B3_0" departPos="4.10" departSpeed="0.00" departDelay="46.30" arrival="193.50" arrivalLane="D3E3_1" arrivalPos="72.80" arrivalSpeed="14.99" duration="121.20" routeLength="368.70" waitingTime="63.10" waitingCount="2" stopTime="0.00" timeLoss="96.71" rerouteNo="0" devices="tripinfo_flow1.26" vType="vtypeauto" speedFactor="1.09" vaporized=""/>
    <tripinfo id="flow1.24" depart="66.80" departLane="A3B3_0" departPos="4.10" departSpeed="0.00" departDelay="42.80" arrival="193.90" arrivalLane="D3E3_0" arrivalPos="72.80" arrivalSpeed="14.60" duration="127.10" routeLength="368.70" waitingTime="68.50" waitingCount="2" stopTime="0.00" timeLoss="101.92" rerouteNo="0" devices="tripinfo_flow1.24" vType="vtypeauto" speedFactor="1.06" vaporized=""/>
    <tripinfo id="flow1.28" depart="77.90" departLane="A3B3_0" departPos="4.10" departSpeed="0.00" departDelay="49.90" arrival="194.10" arrivalLane="D3E3_2" arrivalPos="72.80" arrivalSpeed="13.54" duration="116.20" routeLength="368.70" waitingTime="57.40" waitingCount="2" stopTime="0.00" timeLoss="88.97" rerouteNo="0" devices="tripinfo_flow1.28" vType="vtypeauto" speedFactor="0.98" vaporized=""/>
    <tripinfo id="flow1.29" depart="80.70" departLane="A3B3_0" departPos="4.10" departSpeed="0.00" departDelay="51.70" arrival="195.10" arrivalLane="D3E3_1" arrivalPos="72.80" arrivalSpeed="13.90" duration="114.40" routeLength="368.70" waitingTime="54.80" waitingCount="2" stopTime="0.00" timeLoss="87.98" rerouteNo="0" devices="tripinfo_flow1.29" vType="vtypeauto" speedFactor="1.01" vaporized=""/>
    <tripinfo id="flow1.27" depart="75.10" departLane="A3B3_0" departPos="4.10" departSpeed="0.00" departDelay="48.10" arrival="195.40" arrivalLane="D3E3_0" arrivalPos="72.80" arrivalSpeed="14.02" duration="120.30" routeLength="368.70" waitingTime="60.10" waitingCount="2" stopTime="0.00" timeLoss="94.16" rerouteNo="0" devices="tripinfo_flow1.27" vType="vtypeauto" speedFactor="1.02" vaporized=""/>
    <tripinfo id="flow1.31" depart="86.30" departLane="A3B3_0" departPos="4.10" departSpeed="0.00" departDelay="55.30" arrival="195.50" arrivalLane="D3E3_2" arrivalPos="72.80" arrivalSpeed="15.14" duration="109.20" routeLength="368.70" waitingTime="48.80" waitingCount="2" stopTime="0.00" timeLoss="84.87" rerouteNo="0" devices="tripinfo_flow1.31" vType="vtypeauto" speedFactor="1.09" vaporized=""/>